128
Energy=-20959.3388328310 Lattice="0.0000000000 13.4961000000 13.4961000000 13.4961000000 0.0000000000 13.4961000000 13.4961000000 13.4961000000 0.0000000000" Viral="39.7545836933 2.2277694332 2.2277694332 2.2277694332 39.6045785463 0.2888896004 2.2277694332 0.2888896004 39.6045785463" Config_type="/home/user/rongyi/GaNC/properties/phonon_spectrum/diamond/DFT/2-force/1" Properties=species:S:1:pos:R:3:forces:R:3 Weight=3.0 Pbc="T T T"
C	0.0200024424	0.0000000000	0.0000000000	-0.0053759655	-0.3343703889	-0.3343703889
C	4.7715750000	0.0000000000	0.0000000000	0.0109209607	0.0238389080	0.0238389080
C	9.5431500000	0.0000000000	0.0000000000	0.0000004044	0.0011914398	0.0011914398
C	14.3147250000	0.0000000000	0.0000000000	-0.0108756528	0.0232585381	0.0232585381
C	0.0000000000	4.7715750000	0.0000000000	0.0065691660	-0.0052927433	0.0060972648
C	4.7715750000	4.7715750000	0.0000000000	-0.0003412082	0.0002582369	0.0000176168
C	9.5431500000	4.7715750000	0.0000000000	0.0003336020	0.0000300608	0.0002645319
C	14.3147250000	4.7715750000	0.0000000000	-0.0065842110	0.0060830586	-0.0052289808
C	0.0000000000	9.5431500000	0.0000000000	0.0007604646	-0.0021644042	0.0004277590
C	4.7715750000	9.5431500000	0.0000000000	0.0000027554	0.0005971170	0.0006005504
C	9.5431500000	9.5431500000	0.0000000000	-0.0007644569	0.0004305046	-0.0021577131
C	14.3147250000	9.5431500000	0.0000000000	-0.0000038322	0.0006152735	0.0006199661
C	0.0000000000	14.3147250000	0.0000000000	0.0173846388	-0.0161577483	0.0169441210
C	4.7715750000	14.3147250000	0.0000000000	-0.0175293308	0.0169955938	-0.0161656526
C	9.5431500000	14.3147250000	0.0000000000	0.0000547003	-0.0002653117	0.0005671876
C	14.3147250000	14.3147250000	0.0000000000	-0.0000508298	0.0005625638	-0.0002562666
C	0.0000000000	0.0000000000	4.7715750000	0.0065691660	0.0060972648	-0.0052927433
C	4.7715750000	0.0000000000	4.7715750000	-0.0003412082	0.0000176168	0.0002582369
C	9.5431500000	0.0000000000	4.7715750000	0.0003336020	0.0002645319	0.0000300608
C	14.3147250000	0.0000000000	4.7715750000	-0.0065842110	-0.0052289808	0.0060830586
C	0.0000000000	4.7715750000	4.7715750000	0.0004893164	0.0000194332	0.0000194332
C	4.7715750000	4.7715750000	4.7715750000	0.0000005433	0.0001884930	0.0001884930
C	9.5431500000	4.7715750000	4.7715750000	-0.0004958897	0.0000209621	0.0000209621
C	14.3147250000	4.7715750000	4.7715750000	0.0000010351	0.0003758135	0.0003758135
C	0.0000000000	9.5431500000	4.7715750000	0.0002430789	0.0003575701	-0.0004652015
C	4.7715750000	9.5431500000	4.7715750000	-0.0002393592	-0.0004724238	0.0003576827
C	9.5431500000	9.5431500000	4.7715750000	0.0000127683	0.0000875778	0.0001475334
C	14.3147250000	9.5431500000	4.7715750000	-0.0000114029	0.0001472206	0.0000869376
C	0.0000000000	14.3147250000	4.7715750000	-0.0000339193	-0.0005077798	-0.0004659403
C	4.7715750000	14.3147250000	4.7715750000	0.0000128715	0.0005655021	0.0003646331
C	9.5431500000	14.3147250000	4.7715750000	-0.0000006358	0.0000758265	0.0000745268
C	14.3147250000	14.3147250000	4.7715750000	-0.0000055434	0.0003687204	0.0005633213
C	0.0000000000	0.0000000000	9.5431500000	0.0007604646	0.0004277590	-0.0021644042
C	4.7715750000	0.0000000000	9.5431500000	0.0000027554	0.0006005504	0.0005971170
C	9.5431500000	0.0000000000	9.5431500000	-0.0007644569	-0.0021577131	0.0004305046
C	14.3147250000	0.0000000000	9.5431500000	-0.0000038322	0.0006199661	0.0006152735
C	0.0000000000	4.7715750000	9.5431500000	0.0002430789	-0.0004652015	0.0003575701
C	4.7715750000	4.7715750000	9.5431500000	-0.0002393592	0.0003576827	-0.0004724238
C	9.5431500000	4.7715750000	9.5431500000	0.0000127683	0.0001475334	0.0000875778
C	14.3147250000	4.7715750000	9.5431500000	-0.0000114029	0.0000869376	0.0001472206
C	0.0000000000	9.5431500000	9.5431500000	-0.0000069697	-0.0003333313	-0.0003333313
C	4.7715750000	9.5431500000	9.5431500000	0.0000752622	0.0001542913	0.0001542913
C	9.5431500000	9.5431500000	9.5431500000	0.0000000000	0.0000912383	0.0000912383
C	14.3147250000	9.5431500000	9.5431500000	-0.0000712341	0.0001542948	0.0001542948
C	0.0000000000	14.3147250000	9.5431500000	0.0005453101	-0.0001659397	0.0000735029
C	4.7715750000	14.3147250000	9.5431500000	-0.0000671347	0.0001423938	0.0000725551
C	9.5431500000	14.3147250000	9.5431500000	0.0000669232	0.0000757395	0.0001420150
C	14.3147250000	14.3147250000	9.5431500000	-0.0005449655	0.0000712872	-0.0001647278
C	0.0000000000	0.0000000000	14.3147250000	0.0173846388	0.0169441210	-0.0161577483
C	4.7715750000	0.0000000000	14.3147250000	-0.0175293308	-0.0161656526	0.0169955938
C	9.5431500000	0.0000000000	14.3147250000	0.0000547003	0.0005671876	-0.0002653117
C	14.3147250000	0.0000000000	14.3147250000	-0.0000508298	-0.0002562666	0.0005625638
C	0.0000000000	4.7715750000	14.3147250000	-0.0000339193	-0.0004659403	-0.0005077798
C	4.7715750000	4.7715750000	14.3147250000	0.0000128715	0.0003646331	0.0005655021
C	9.5431500000	4.7715750000	14.3147250000	-0.0000006358	0.0000745268	0.0000758265
C	14.3147250000	4.7715750000	14.3147250000	-0.0000055434	0.0005633213	0.0003687204
C	0.0000000000	9.5431500000	14.3147250000	0.0005453101	0.0000735029	-0.0001659397
C	4.7715750000	9.5431500000	14.3147250000	-0.0000671347	0.0000725551	0.0001423938
C	9.5431500000	9.5431500000	14.3147250000	0.0000669232	0.0001420150	0.0000757395
C	14.3147250000	9.5431500000	14.3147250000	-0.0005449655	-0.0001647278	0.0000712872
C	0.0000000000	14.3147250000	14.3147250000	-0.0000931600	0.0000204269	0.0000204269
C	4.7715750000	14.3147250000	14.3147250000	0.0000009596	0.0003575331	0.0003575331
C	9.5431500000	14.3147250000	14.3147250000	0.0000977533	0.0000189051	0.0000189051
C	14.3147250000	14.3147250000	14.3147250000	0.0000000000	0.0002077891	0.0002077891
C	1.1928937500	1.1928937500	1.1928937500	0.0341246553	0.0873699539	0.0873699539
C	5.9644687500	1.1928937500	1.1928937500	-0.0035480027	0.0014078597	0.0014078597
C	10.7360437500	1.1928937500	1.1928937500	0.0035526085	0.0013410301	0.0013410301
C	15.5076187500	1.1928937500	1.1928937500	-0.0290748376	0.0828471172	0.0828471172
C	1.1928937500	5.9644687500	1.1928937500	-0.0010491337	0.0011697508	-0.0011166701
C	5.9644687500	5.9644687500	1.1928937500	-0.0000028076	-0.0003049466	-0.0003049479
C	10.7360437500	5.9644687500	1.1928937500	0.0010581349	-0.0011287998	0.0011422516
C	15.5076187500	5.9644687500	1.1928937500	-0.0000227068	-0.0008277865	-0.0008627735
C	1.1928937500	10.7360437500	1.1928937500	0.0024821189	0.0047162980	0.0024175452
C	5.9644687500	10.7360437500	1.1928937500	-0.0025124260	0.0024386329	0.0046975653
C	10.7360437500	10.7360437500	1.1928937500	-0.0001139362	-0.0001837229	-0.0004957405
C	15.5076187500	10.7360437500	1.1928937500	0.0001134791	-0.0004902379	-0.0001852085
C	1.1928937500	15.5076187500	1.1928937500	0.0003927360	0.0534578035	0.0536168345
C	5.9644687500	15.5076187500	1.1928937500	0.0008406956	-0.0012276693	-0.0016969127
C	10.7360437500	15.5076187500	1.1928937500	0.0000028771	-0.0000708404	-0.0000706654
C	15.5076187500	15.5076187500	1.1928937500	-0.0008526084	-0.0016880035	-0.0012695776
C	1.1928937500	1.1928937500	5.9644687500	-0.0010491337	-0.0011166701	0.0011697508
C	5.9644687500	1.1928937500	5.9644687500	-0.0000028076	-0.0003049479	-0.0003049466
C	10.7360437500	1.1928937500	5.9644687500	0.0010581349	0.0011422516	-0.0011287998
C	15.5076187500	1.1928937500	5.9644687500	-0.0000227068	-0.0008627735	-0.0008277865
C	1.1928937500	5.9644687500	5.9644687500	-0.0003850636	0.0000789159	0.0000789159
C	5.9644687500	5.9644687500	5.9644687500	0.0003876511	0.0000838312	0.0000838312
C	10.7360437500	5.9644687500	5.9644687500	-0.0001044076	-0.0002183645	-0.0002183645
C	15.5076187500	5.9644687500	5.9644687500	0.0001072840	-0.0002185179	-0.0002185179
C	1.1928937500	10.7360437500	5.9644687500	0.0000045273	-0.0000615732	-0.0000767497
C	5.9644687500	10.7360437500	5.9644687500	-0.0000865771	-0.0001132272	-0.0002374506
C	10.7360437500	10.7360437500	5.9644687500	0.0000027652	-0.0000906940	-0.0000961643
C	15.5076187500	10.7360437500	5.9644687500	0.0000836076	-0.0002389156	-0.0001148289
C	1.1928937500	15.5076187500	5.9644687500	-0.0005522371	0.0001497458	-0.0002913083
C	5.9644687500	15.5076187500	5.9644687500	0.0000194039	-0.0000076532	-0.0001321571
C	10.7360437500	15.5076187500	5.9644687500	-0.0000200823	-0.0001345681	-0.0000086698
C	15.5076187500	15.5076187500	5.9644687500	0.0005588585	-0.0002883987	0.0001542421
C	1.1928937500	1.1928937500	10.7360437500	0.0024821189	0.0024175452	0.0047162980
C	5.9644687500	1.1928937500	10.7360437500	-0.0025124260	0.0046975653	0.0024386329
C	10.7360437500	1.1928937500	10.7360437500	-0.0001139362	-0.0004957405	-0.0001837229
C	15.5076187500	1.1928937500	10.7360437500	0.0001134791	-0.0001852085	-0.0004902379
C	1.1928937500	5.9644687500	10.7360437500	0.0000045273	-0.0000767497	-0.0000615732
C	5.9644687500	5.9644687500	10.7360437500	-0.0000865771	-0.0002374506	-0.0001132272
C	10.7360437500	5.9644687500	10.7360437500	0.0000027652	-0.0000961643	-0.0000906940
C	15.5076187500	5.9644687500	10.7360437500	0.0000836076	-0.0001148289	-0.0002389156
C	1.1928937500	10.7360437500	10.7360437500	-0.0003852348	0.0000855140	0.0000855140
C	5.9644687500	10.7360437500	10.7360437500	0.0000059331	-0.0000994838	-0.0000994838
C	10.7360437500	10.7360437500	10.7360437500	-0.0000120213	-0.0001053368	-0.0001053368
C	15.5076187500	10.7360437500	10.7360437500	0.0003840382	0.0000863568	0.0000863568
C	1.1928937500	15.5076187500	10.7360437500	-0.0002706948	0.0001992406	-0.0001077241
C	5.9644687500	15.5076187500	10.7360437500	-0.0000010570	-0.0001536656	-0.0001525870
C	10.7360437500	15.5076187500	10.7360437500	0.0002701202	-0.0001088792	0.0002000338
C	15.5076187500	15.5076187500	10.7360437500	-0.0000018864	-0.0001846133	-0.0001814385
C	1.1928937500	1.1928937500	15.5076187500	0.0003927360	0.0536168345	0.0534578035
C	5.9644687500	1.1928937500	15.5076187500	0.0008406956	-0.0016969127	-0.0012276693
C	10.7360437500	1.1928937500	15.5076187500	0.0000028771	-0.0000706654	-0.0000708404
C	15.5076187500	1.1928937500	15.5076187500	-0.0008526084	-0.0012695776	-0.0016880035
C	1.1928937500	5.9644687500	15.5076187500	-0.0005522371	-0.0002913083	0.0001497458
C	5.9644687500	5.9644687500	15.5076187500	0.0000194039	-0.0001321571	-0.0000076532
C	10.7360437500	5.9644687500	15.5076187500	-0.0000200823	-0.0000086698	-0.0001345681
C	15.5076187500	5.9644687500	15.5076187500	0.0005588585	0.0001542421	-0.0002883987
C	1.1928937500	10.7360437500	15.5076187500	-0.0002706948	-0.0001077241	0.0001992406
C	5.9644687500	10.7360437500	15.5076187500	-0.0000010570	-0.0001525870	-0.0001536656
C	10.7360437500	10.7360437500	15.5076187500	0.0002701202	0.0002000338	-0.0001088792
C	15.5076187500	10.7360437500	15.5076187500	-0.0000018864	-0.0001814385	-0.0001846133
C	1.1928937500	15.5076187500	15.5076187500	-0.0014156441	-0.0011403799	-0.0011403799
C	5.9644687500	15.5076187500	15.5076187500	0.0013867817	-0.0011332354	-0.0011332354
C	10.7360437500	15.5076187500	15.5076187500	-0.0000867780	-0.0000965788	-0.0000965788
C	15.5076187500	15.5076187500	15.5076187500	0.0000903990	-0.0000923212	-0.0000923212
192
Energy=-225864.5018845374 Lattice="24.3717000000 0.0000000000 0.0000000000 -12.1858000000 21.1065000000 0.0000000000 0.0000000000 0.0000000000 29.7534000000" Viral="5.8296941789 -4.3894107919 3.2519503451 -4.3894107919 6.9906532673 -0.0599913198 3.2519503451 -0.0599913198 -118.9739458014" Config_type="/home/user/rongyi/GaNC/properties/phonon_spectrum/GaN/DFT/2-force-443/2" Properties=species:S:1:pos:R:3:forces:R:3 Weight=3.0 Pbc="T T T"
Ga	4.0492848399	2.0309668761	4.9331732268	0.1184463369	-0.0009259776	0.1346437027
Ga	10.1548831239	2.0309668761	4.9486449948	-0.0122120316	-0.0002119786	0.0022841493
Ga	16.2478081239	2.0309668761	4.9486449948	-0.0021670007	-0.0005698037	0.0008171873
Ga	22.3407331239	2.0309668761	4.9486449948	-0.0170671301	-0.0057841187	0.0062226878
Ga	4.0619581239	8.1238918761	4.9486449948	0.0021089802	0.0153131123	0.0074388036
Ga	10.1548831239	8.1238918761	4.9486449948	-0.0008755967	-0.0079292762	0.0010790310
Ga	16.2478081239	8.1238918761	4.9486449948	-0.0010703589	-0.0001987006	0.0000438623
Ga	22.3407331239	8.1238918761	4.9486449948	-0.0022115882	0.0010331199	0.0008439756
Ga	4.0619581239	14.2168168761	4.9486449948	0.0009859518	0.0019065276	0.0012865629
Ga	10.1548831239	14.2168168761	4.9486449948	-0.0006120235	0.0006571156	0.0004458250
Ga	16.2478081239	14.2168168761	4.9486449948	-0.0001518688	-0.0010772438	0.0003495890
Ga	22.3407331239	14.2168168761	4.9486449948	-0.0005741924	-0.0005731318	0.0004448597
Ga	4.0619581239	20.3097418761	4.9486449948	0.0044981431	0.0055800970	0.0054736786
Ga	10.1548831239	20.3097418761	4.9486449948	-0.0011669319	0.0004069315	-0.0000195574
Ga	16.2478081239	20.3097418761	4.9486449948	-0.0021595480	-0.0008068968	0.0009136234
Ga	22.3407331239	20.3097418761	4.9486449948	-0.0032177212	-0.0064368047	0.0030524129
Ga	4.0619581239	2.0309668761	14.8664350770	-0.0001476112	0.0000855877	-0.0051296812
Ga	10.1548831239	2.0309668761	14.8664350770	-0.0014544746	0.0008102422	-0.0021272034
Ga	16.2478081239	2.0309668761	14.8664350770	-0.0005396283	0.0003713572	-0.0013910481
Ga	22.3407331239	2.0309668761	14.8664350770	0.0015902894	0.0011590787	-0.0014786494
Ga	4.0619581239	8.1238918761	14.8664350770	-0.0000422879	-0.0017878838	-0.0015277364
Ga	10.1548831239	8.1238918761	14.8664350770	-0.0000084940	-0.0015725429	-0.0020796648
Ga	16.2478081239	8.1238918761	14.8664350770	-0.0005170454	-0.0001892497	-0.0013877150
Ga	22.3407331239	8.1238918761	14.8664350770	-0.0000119938	0.0000725561	-0.0012733291
Ga	4.0619581239	14.2168168761	14.8664350770	-0.0003996329	0.0001678347	-0.0013603141
Ga	10.1548831239	14.2168168761	14.8664350770	-0.0001745769	-0.0003039187	-0.0013526905
Ga	16.2478081239	14.2168168761	14.8664350770	0.0000947066	-0.0002792236	-0.0014224431
Ga	22.3407331239	14.2168168761	14.8664350770	-0.0000377929	0.0003785544	-0.0013306674
Ga	4.0619581239	20.3097418761	14.8664350770	-0.0014608555	0.0010161265	-0.0018523042
Ga	10.1548831239	20.3097418761	14.8664350770	-0.0006868824	0.0003823446	-0.0014081830
Ga	16.2478081239	20.3097418761	14.8664350770	-0.0000100471	0.0001815553	-0.0012969385
Ga	22.3407331239	20.3097418761	14.8664350770	0.0016189873	0.0008956310	-0.0017556860
Ga	4.0619581239	2.0309668761	24.7842251592	-0.0001577801	0.0000868890	-0.0049668296
Ga	10.1548831239	2.0309668761	24.7842251592	0.0004729192	-0.0001429211	-0.0003765357
Ga	16.2478081239	2.0309668761	24.7842251592	-0.0005339354	0.0000391889	-0.0012170361
Ga	22.3407331239	2.0309668761	24.7842251592	-0.0003351076	-0.0000107525	-0.0028845640
Ga	4.0619581239	8.1238918761	24.7842251592	0.0000051662	0.0003537214	-0.0028910244
Ga	10.1548831239	8.1238918761	24.7842251592	0.0001260338	0.0006825861	-0.0003706464
Ga	16.2478081239	8.1238918761	24.7842251592	-0.0002656103	0.0000220820	-0.0008989641
Ga	22.3407331239	8.1238918761	24.7842251592	-0.0004041140	0.0002313545	-0.0014560719
Ga	4.0619581239	14.2168168761	24.7842251592	-0.0001116143	0.0003307435	-0.0014148777
Ga	10.1548831239	14.2168168761	24.7842251592	-0.0000581379	0.0001725979	-0.0011573668
Ga	16.2478081239	14.2168168761	24.7842251592	-0.0001939081	-0.0001094019	-0.0010187184
Ga	22.3407331239	14.2168168761	24.7842251592	-0.0001536268	0.0000069734	-0.0011774120
Ga	4.0619581239	20.3097418761	24.7842251592	0.0003255232	-0.0000690828	-0.0016363072
Ga	10.1548831239	20.3097418761	24.7842251592	-0.0001978898	0.0001673265	-0.0009447094
Ga	16.2478081239	20.3097418761	24.7842251592	-0.0003460866	-0.0000796064	-0.0013705967
Ga	22.3407331239	20.3097418761	24.7842251592	-0.0003613649	-0.0002938730	-0.0016239596
Ga	2.0309668761	4.0619581239	9.9075251592	0.0157630281	-0.0085660706	-0.0019263736
Ga	8.1238918761	4.0619581239	9.9075251592	-0.0137022286	-0.0085981087	-0.0153369202
Ga	14.2168168761	4.0619581239	9.9075251592	-0.0022783291	-0.0014790376	-0.0012567202
Ga	20.3097418761	4.0619581239	9.9075251592	-0.0003823814	-0.0004415687	-0.0004661878
Ga	2.0309668761	10.1548831239	9.9075251592	0.0005706962	0.0000764641	-0.0004384603
Ga	8.1238918761	10.1548831239	9.9075251592	0.0024302276	-0.0019559744	-0.0010602464
Ga	14.2168168761	10.1548831239	9.9075251592	-0.0018991109	-0.0010173041	-0.0012865100
Ga	20.3097418761	10.1548831239	9.9075251592	-0.0006303337	-0.0000854796	-0.0006059372
Ga	2.0309668761	16.2478081239	9.9075251592	0.0002100309	0.0017394090	-0.0008337522
Ga	8.1238918761	16.2478081239	9.9075251592	0.0002302384	0.0002795324	-0.0006789365
Ga	14.2168168761	16.2478081239	9.9075251592	0.0004660270	-0.0005883938	-0.0005549124
Ga	20.3097418761	16.2478081239	9.9075251592	-0.0003589000	0.0006137980	-0.0008912773
Ga	2.0309668761	22.3407331239	9.9075251592	0.0010580913	0.0169274921	-0.0086539451
Ga	8.1238918761	22.3407331239	9.9075251592	-0.0016132010	0.0022433325	-0.0018758766
Ga	14.2168168761	22.3407331239	9.9075251592	-0.0004035229	0.0000488746	-0.0006166522
Ga	20.3097418761	22.3407331239	9.9075251592	0.0016261810	-0.0005553885	-0.0002399633
Ga	2.0309668761	4.0619581239	19.8253449948	0.0003997169	-0.0001841389	-0.0027142609
Ga	8.1238918761	4.0619581239	19.8253449948	-0.0000499311	-0.0002475571	-0.0023412949
Ga	14.2168168761	4.0619581239	19.8253449948	-0.0000835448	-0.0001580527	-0.0015047131
Ga	20.3097418761	4.0619581239	19.8253449948	0.0002421109	-0.0002873529	-0.0017761135
Ga	2.0309668761	10.1548831239	19.8253449948	0.0004139402	-0.0001451540	-0.0018042750
Ga	8.1238918761	10.1548831239	19.8253449948	0.0001114463	-0.0002560930	-0.0016971409
Ga	14.2168168761	10.1548831239	19.8253449948	0.0000143943	-0.0001719161	-0.0014769110
Ga	20.3097418761	10.1548831239	19.8253449948	-0.0000292736	-0.0000858696	-0.0014963259
Ga	2.0309668761	16.2478081239	19.8253449948	0.0001392908	0.0002009986	-0.0016685369
Ga	8.1238918761	16.2478081239	19.8253449948	0.0001543610	-0.0000416910	-0.0014784309
Ga	14.2168168761	16.2478081239	19.8253449948	0.0001583416	-0.0001327491	-0.0014856956
Ga	20.3097418761	16.2478081239	19.8253449948	0.0000653592	0.0000454029	-0.0016125753
Ga	2.0309668761	22.3407331239	19.8253449948	0.0002298152	0.0001734051	-0.0025278781
Ga	8.1238918761	22.3407331239	19.8253449948	-0.0000472940	0.0000054141	-0.0015716941
Ga	14.2168168761	22.3407331239	19.8253449948	0.0000774929	-0.0000839980	-0.0014820926
Ga	20.3097418761	22.3407331239	19.8253449948	0.0002474637	-0.0000077047	-0.0018224087
Ga	2.0309668761	4.0619581239	29.7431350770	-0.0073619593	0.0048001682	-0.0210263082
Ga	8.1238918761	4.0619581239	29.7431350770	0.0093069529	0.0046561063	0.0032603895
Ga	14.2168168761	4.0619581239	29.7431350770	-0.0008402316	0.0000793283	-0.0002423998
Ga	20.3097418761	4.0619581239	29.7431350770	-0.0018185606	0.0004058370	-0.0018123329
Ga	2.0309668761	10.1548831239	29.7431350770	-0.0011950127	0.0010777949	-0.0020426103
Ga	8.1238918761	10.1548831239	29.7431350770	0.0024267095	0.0010788987	-0.0012302968
Ga	14.2168168761	10.1548831239	29.7431350770	-0.0001360522	-0.0007300957	-0.0000103312
Ga	20.3097418761	10.1548831239	29.7431350770	-0.0006248314	-0.0000858071	-0.0007723366
Ga	2.0309668761	16.2478081239	29.7431350770	-0.0001126439	-0.0004698567	-0.0012588942
Ga	8.1238918761	16.2478081239	29.7431350770	0.0004192962	0.0003869468	-0.0006888505
Ga	14.2168168761	16.2478081239	29.7431350770	0.0002743425	-0.0004761547	-0.0008881795
Ga	20.3097418761	16.2478081239	29.7431350770	-0.0000338406	-0.0008790099	-0.0007965234
Ga	2.0309668761	22.3407331239	29.7431350770	0.0010972333	-0.0097012292	-0.0088660114
Ga	8.1238918761	22.3407331239	29.7431350770	0.0010061587	0.0007335257	0.0001071172
Ga	14.2168168761	22.3407331239	29.7431350770	-0.0004006569	-0.0001698634	-0.0007887875
Ga	20.3097418761	22.3407331239	29.7431350770	-0.0010122086	-0.0020720998	-0.0025766402
N	4.0619581239	2.0309668761	8.6883498408	-0.0113090167	0.0000808363	-0.0557181174
N	10.1548831239	2.0309668761	8.6883498408	0.0051007389	0.0002241926	0.0014840849
N	16.2478081239	2.0309668761	8.6883498408	0.0010237698	0.0001797657	-0.0000184220
N	22.3407331239	2.0309668761	8.6883498408	-0.0023316552	0.0011992012	-0.0038340435
N	4.0619581239	8.1238918761	8.6883498408	-0.0031471125	0.0014267057	-0.0035026906
N	10.1548831239	8.1238918761	8.6883498408	0.0016553807	0.0045722009	0.0011587688
N	16.2478081239	8.1238918761	8.6883498408	0.0009268702	0.0006261208	0.0003446787
N	22.3407331239	8.1238918761	8.6883498408	0.0001847281	-0.0000201498	-0.0003404723
N	4.0619581239	14.2168168761	8.6883498408	-0.0001499333	-0.0005883291	-0.0002868113
N	10.1548831239	14.2168168761	8.6883498408	-0.0004140673	0.0005276090	0.0000420508
N	16.2478081239	14.2168168761	8.6883498408	0.0000061544	0.0006768157	0.0002497424
N	22.3407331239	14.2168168761	8.6883498408	-0.0000038793	-0.0003394983	0.0000018983
N	4.0619581239	20.3097418761	8.6883498408	0.0007037184	-0.0042598163	-0.0008404693
N	10.1548831239	20.3097418761	8.6883498408	0.0007139811	-0.0005605829	0.0003023489
N	16.2478081239	20.3097418761	8.6883498408	-0.0000441850	0.0003042514	-0.0002192330
N	22.3407331239	20.3097418761	8.6883498408	-0.0019445728	-0.0026298555	-0.0014973111
N	4.0619581239	2.0309668761	18.6061399230	-0.0003179444	0.0000899024	0.0026515756
N	10.1548831239	2.0309668761	18.6061399230	0.0001564653	-0.0000206001	0.0020497805
N	16.2478081239	2.0309668761	18.6061399230	0.0000766779	0.0000680019	0.0014351278
N	22.3407331239	2.0309668761	18.6061399230	-0.0005008016	-0.0000832462	0.0021210496
N	4.0619581239	8.1238918761	18.6061399230	-0.0002766929	0.0004371864	0.0021448862
N	10.1548831239	8.1238918761	18.6061399230	-0.0001935368	0.0004527001	0.0020260972
N	16.2478081239	8.1238918761	18.6061399230	0.0000570470	0.0001922435	0.0014445446
N	22.3407331239	8.1238918761	18.6061399230	-0.0001178271	0.0000876486	0.0014433838
N	4.0619581239	14.2168168761	18.6061399230	-0.0001287899	-0.0000290751	0.0014559178
N	10.1548831239	14.2168168761	18.6061399230	-0.0001330011	0.0002003219	0.0014041349
N	16.2478081239	14.2168168761	18.6061399230	-0.0001666321	0.0002300287	0.0014150332
N	22.3407331239	14.2168168761	18.6061399230	-0.0001209701	-0.0000114067	0.0014441874
N	4.0619581239	20.3097418761	18.6061399230	0.0000496852	-0.0001902875	0.0021094731
N	10.1548831239	20.3097418761	18.6061399230	0.0000629064	-0.0000233277	0.0014170297
N	16.2478081239	20.3097418761	18.6061399230	-0.0001289169	0.0000921389	0.0013910876
N	22.3407331239	20.3097418761	18.6061399230	-0.0005246586	-0.0000576917	0.0020619549
N	4.0619581239	2.0309668761	28.5239300052	-0.0033280975	0.0000909816	0.0071953433
N	10.1548831239	2.0309668761	28.5239300052	-0.0000632067	-0.0007997878	-0.0012231110
N	16.2478081239	2.0309668761	28.5239300052	0.0008815338	0.0001417027	0.0011810119
N	22.3407331239	2.0309668761	28.5239300052	0.0021158108	0.0010206634	0.0039135330
N	4.0619581239	8.1238918761	28.5239300052	-0.0003533604	-0.0026846822	0.0041457159
N	10.1548831239	8.1238918761	28.5239300052	-0.0014065432	0.0009536085	-0.0014530660
N	16.2478081239	8.1238918761	28.5239300052	0.0002912757	0.0002230631	0.0007514623
N	22.3407331239	8.1238918761	28.5239300052	0.0006904824	-0.0002746338	0.0015026795
N	4.0619581239	14.2168168761	28.5239300052	-0.0001348488	-0.0004972601	0.0014239200
N	10.1548831239	14.2168168761	28.5239300052	-0.0004512444	-0.0001920452	0.0011090251
N	16.2478081239	14.2168168761	28.5239300052	-0.0000448499	0.0006243963	0.0009374458
N	22.3407331239	14.2168168761	28.5239300052	0.0000598646	0.0003200844	0.0011271399
N	4.0619581239	20.3097418761	28.5239300052	-0.0012765801	0.0007358911	0.0015755154
N	10.1548831239	20.3097418761	28.5239300052	0.0000350461	-0.0001909285	0.0007809991
N	16.2478081239	20.3097418761	28.5239300052	0.0005234980	0.0006526004	0.0014387704
N	22.3407331239	20.3097418761	28.5239300052	-0.0001513503	0.0013082629	0.0011134139
N	2.0309668761	4.0619581239	3.7294399230	-0.0512763120	0.0238874011	-0.0288193996
N	8.1238918761	4.0619581239	3.7294399230	-0.0236394734	-0.0079640964	-0.0060843850
N	14.2168168761	4.0619581239	3.7294399230	0.0018316942	0.0002716647	-0.0000953332
N	20.3097418761	4.0619581239	3.7294399230	0.0051013411	-0.0000088462	0.0000917245
N	2.0309668761	10.1548831239	3.7294399230	0.0022258563	-0.0046651340	-0.0001139177
N	8.1238918761	10.1548831239	3.7294399230	-0.0031562465	-0.0019940982	-0.0003974616
N	14.2168168761	10.1548831239	3.7294399230	0.0009774805	0.0014356848	0.0001071969
N	20.3097418761	10.1548831239	3.7294399230	0.0012519769	-0.0000892929	0.0003019764
N	2.0309668761	16.2478081239	3.7294399230	-0.0012401754	0.0010580336	-0.0002076306
N	8.1238918761	16.2478081239	3.7294399230	-0.0000368319	-0.0008279830	0.0002919588
N	14.2168168761	16.2478081239	3.7294399230	0.0002938018	0.0004617223	0.0002716927
N	20.3097418761	16.2478081239	3.7294399230	0.0007819333	0.0013777832	0.0002005299
N	2.0309668761	22.3407331239	3.7294399230	-0.0098770844	-0.0152729252	-0.0171438629
N	8.1238918761	22.3407331239	3.7294399230	0.0000047101	-0.0019115973	-0.0005666107
N	14.2168168761	22.3407331239	3.7294399230	0.0012454024	0.0001015025	0.0002819118
N	20.3097418761	22.3407331239	3.7294399230	0.0033066376	0.0036447818	-0.0002254070
N	2.0309668761	4.0619581239	13.6472300052	-0.0030662858	0.0017683919	0.0050391443
N	8.1238918761	4.0619581239	13.6472300052	0.0018192709	0.0008732213	0.0046771018
N	14.2168168761	4.0619581239	13.6472300052	0.0010411390	0.0001054986	0.0016133832
N	20.3097418761	4.0619581239	13.6472300052	-0.0000272512	-0.0001300866	0.0006750377
N	2.0309668761	10.1548831239	13.6472300052	-0.0000640682	0.0001967546	0.0007404969
N	8.1238918761	10.1548831239	13.6472300052	-0.0003887391	0.0007133556	0.0011666612
N	14.2168168761	10.1548831239	13.6472300052	0.0006040414	0.0004736327	0.0015500557
N	20.3097418761	10.1548831239	13.6472300052	0.0004067737	-0.0000893547	0.0009566381
N	2.0309668761	16.2478081239	13.6472300052	0.0003671713	-0.0007855920	0.0012099256
N	8.1238918761	16.2478081239	13.6472300052	0.0001961196	-0.0001919548	0.0009821501
N	14.2168168761	16.2478081239	13.6472300052	0.0000222662	0.0001145198	0.0009747794
N	20.3097418761	16.2478081239	13.6472300052	-0.0000340430	-0.0003958213	0.0010811474
N	2.0309668761	22.3407331239	13.6472300052	0.0001517346	-0.0029093315	0.0048603290
N	8.1238918761	22.3407331239	13.6472300052	0.0007902687	-0.0007686483	0.0016152030
N	14.2168168761	22.3407331239	13.6472300052	0.0003746062	-0.0001889977	0.0009782786
N	20.3097418761	22.3407331239	13.6472300052	-0.0006005691	-0.0002102365	0.0007173946
N	2.0309668761	4.0619581239	23.5650498408	0.0002890346	-0.0002433383	0.0027522556
N	8.1238918761	4.0619581239	23.5650498408	-0.0006956032	-0.0005031756	0.0021802565
N	14.2168168761	4.0619581239	23.5650498408	0.0003489812	-0.0000448766	0.0010304996
N	20.3097418761	4.0619581239	23.5650498408	0.0005934218	-0.0001629123	0.0017997475
N	2.0309668761	10.1548831239	23.5650498408	0.0003541280	-0.0003405849	0.0018476385
N	8.1238918761	10.1548831239	23.5650498408	-0.0004506174	-0.0002589993	0.0015346192
N	14.2168168761	10.1548831239	23.5650498408	0.0002059931	-0.0000343817	0.0009827802
N	20.3097418761	10.1548831239	23.5650498408	0.0004317618	-0.0000890404	0.0012555792
N	2.0309668761	16.2478081239	23.5650498408	0.0001437131	-0.0000941997	0.0014629046
N	8.1238918761	16.2478081239	23.5650498408	0.0000638546	-0.0002455468	0.0012482240
N	14.2168168761	16.2478081239	23.5650498408	0.0001083916	0.0000419758	0.0012415767
N	20.3097418761	16.2478081239	23.5650498408	0.0002401483	0.0001427866	0.0013672976
N	2.0309668761	22.3407331239	23.5650498408	0.0000217405	0.0004797033	0.0024663003
N	8.1238918761	22.3407331239	23.5650498408	-0.0000621366	-0.0003131956	0.0011883568
N	14.2168168761	22.3407331239	23.5650498408	0.0003351242	-0.0000632141	0.0012449822
N	20.3097418761	22.3407331239	23.5650498408	0.0002321139	0.0003052700	0.0018807023
192
Energy=-225864.5018803998 Lattice="24.3717000000 0.0000000000 0.0000000000 -12.1858000000 21.1065000000 0.0000000000 0.0000000000 0.0000000000 29.7534000000" Viral="-1.8128499624 5.1137519661 -3.2857810760 5.1137519661 -0.6495446408 -0.0585781724 -3.2857810760 -0.0585781724 -104.4799303957" Config_type="/home/user/rongyi/GaNC/properties/phonon_spectrum/GaN/DFT/2-force-443/1" Properties=species:S:1:pos:R:3:forces:R:3 Weight=3.0 Pbc="T T T"
Ga	4.0746314079	2.0309668761	4.9641167628	-0.1155750040	-0.0008991000	-0.1388056441
Ga	10.1548831239	2.0309668761	4.9486449948	0.0120239858	0.0004017393	-0.0042087133
Ga	16.2478081239	2.0309668761	4.9486449948	0.0019095752	0.0007507291	-0.0026698787
Ga	22.3407331239	2.0309668761	4.9486449948	0.0167263697	0.0059922609	-0.0080570869
Ga	4.0619581239	8.1238918761	4.9486449948	-0.0023563212	-0.0151598055	-0.0092887431
Ga	10.1548831239	8.1238918761	4.9486449948	0.0006108264	0.0080716578	-0.0029650018
Ga	16.2478081239	8.1238918761	4.9486449948	0.0008066945	0.0003722027	-0.0018959729
Ga	22.3407331239	8.1238918761	4.9486449948	0.0019593832	-0.0008621271	-0.0026945848
Ga	4.0619581239	14.2168168761	4.9486449948	-0.0012485006	-0.0017370377	-0.0031374333
Ga	10.1548831239	14.2168168761	4.9486449948	0.0003508387	-0.0004837232	-0.0022939893
Ga	16.2478081239	14.2168168761	4.9486449948	-0.0000990198	0.0012459158	-0.0022004929
Ga	22.3407331239	14.2168168761	4.9486449948	0.0003140859	0.0007513428	-0.0022943307
Ga	4.0619581239	20.3097418761	4.9486449948	-0.0047847390	-0.0053865756	-0.0073605973
Ga	10.1548831239	20.3097418761	4.9486449948	0.0009073434	-0.0002347073	-0.0018298684
Ga	16.2478081239	20.3097418761	4.9486449948	0.0018909113	0.0009757400	-0.0027557178
Ga	22.3407331239	20.3097418761	4.9486449948	0.0030092444	0.0066121658	-0.0048852011
Ga	4.0619581239	2.0309668761	14.8664350770	-0.0001106895	0.0000855694	0.0033113419
Ga	10.1548831239	2.0309668761	14.8664350770	0.0011908107	-0.0006317222	0.0003394710
Ga	16.2478081239	2.0309668761	14.8664350770	0.0002834535	-0.0001990349	-0.0004002814
Ga	22.3407331239	2.0309668761	14.8664350770	-0.0018453806	-0.0009833638	-0.0003122717
Ga	4.0619581239	8.1238918761	14.8664350770	-0.0002178403	0.0019571033	-0.0002632006
Ga	10.1548831239	8.1238918761	14.8664350770	-0.0002477614	0.0017410241	0.0002888287
Ga	16.2478081239	8.1238918761	14.8664350770	0.0002589173	0.0003654094	-0.0004031586