301
Lattice="12.949330375784799 0.0 0.0 0.0 12.949330375784799 0.0 0.0 0.0 17.709825134927094" Properties=species:S:1:pos:R:3:momenta:R:3:forces:R:3 stress="-0.00808233958748139 -0.0 -0.0 -0.0 -0.00808233958748139 -0.0 -0.0 -0.0 -0.011053607918063436" pbc="T T T"
C        1.05304857       0.25217767       0.23307310       0.28548997      -0.13418997      -0.02315557       2.42249648      -1.22088297      -0.16475525
C        6.26191765       7.49626554       4.85887232       0.08846611       0.16669590       0.20115364       0.76647414       1.38323190       1.87121338
C        2.60857671       2.70000544       0.30848758       0.06295405      -0.08949368       0.46090079       0.53199632      -0.82932769       4.18964575
C        5.44300683       2.42719747       0.32759870       0.02955350      -0.00714107       0.44369089       0.35123769      -0.07918799       4.02491644
C        7.89456575       2.45947773       0.21415141      -0.17149024       0.02291595       0.05752643      -1.41874769       0.19978651       0.58076175
C       10.77506083       2.42594770       0.50397785      -0.10745644      -0.29471391       0.12325191      -0.96586400      -2.55939053       1.15914469
C        0.23994449       5.67454676       0.30319717       0.06316894       0.05022842       0.17099136       0.46422299       0.48048664       1.57770870
C        3.02412640       6.00610901       0.25103124      -0.19285739      -0.00613498       0.15332565      -1.74256863      -0.00815883       1.45113414
C        5.53166167       5.69202479       0.32951817       0.22339440      -0.01011722       0.25551902       2.00430362      -0.08554904       2.32493211
C        8.08344717       5.09020224       0.40005944      -0.08977115       0.01914558       0.50206552      -0.67837621       0.19556403       4.46247041
C       10.43187669       4.96445621       0.06221354      -0.23926803       0.08612197       0.03556715      -2.09603861       0.80058318       0.37671609
C       12.57099317       8.32486932      17.57890079      -0.17633378      -0.00144284      -0.12415949      -1.66349643      -0.04528694      -1.11799831
C        3.01677534       8.47909864       0.34900096       0.02943637       0.26194954       0.49038894       0.14919145       2.25635541       4.34529953
C        5.82372384       8.45654086       0.08056070      -0.03206303       0.06725879       0.15031618      -0.22998959       0.59032342       1.38896352
C        8.24142163       8.36787882       0.38573543      -0.04018637      -0.06478606       0.15830671      -0.25345678      -0.59904920       1.42594119
C       10.68983372       7.92169136       0.47334056      -0.28014735      -0.05113242       0.57074437      -2.46392801      -0.42381294       5.02693005
C        0.44305467      10.60999165      17.59731979       0.16657480       0.02579035      -0.08236197       1.37417568       0.23397636      -0.73047928
C        1.40215585      11.72551467       0.14417645       0.19449458      -0.06825651       0.20785244       1.64371744      -0.62808020       1.86892151
C        5.32491841      11.12345653       0.27632308       0.07707596       0.15679036       0.36886929       0.73267975       1.35940167       3.28297270
C        8.32366762      10.93849048       0.37368233      -0.08279588       0.03308485       0.57736003      -0.67796605       0.27564015       5.14299778
C       10.85443746      10.88174238       0.34839406      -0.24647956       0.06310691       0.29648034      -2.16295588       0.50964279       2.62547015
C        1.46131370       1.43744517       2.03690062       0.03579888       0.07352801       0.09352368       0.25820929       0.60847772       0.96844983
C        4.10041422       1.39094378       2.09897117       0.03513477       0.10017791       0.13893673       0.32791584       0.88123575       1.38979678
C        6.80426518       1.38887250       2.11229743       0.01699924       0.05715663       0.18364424       0.20714193       0.51617809       1.75969812
C        9.44562215       1.37031632       2.15273434      -0.09189677       0.06621885       0.20279680      -0.78910789       0.60890778       1.86670793
C       12.02790676       1.35466873       2.10778294      -0.05521620       0.16484142       0.23192445      -0.52617517       1.47428431       2.12621190
C        1.46161222       4.03805652       2.06300140       0.08357372       0.00075610       0.13690397       0.68283841       0.04646581       1.36546292
C        4.12035639       4.02940708       2.03907485       0.04493290       0.02015093       0.18087953       0.42729109       0.19550763       1.78487421
C        6.79287840       4.02177149       2.10996951      -0.05319350       0.00287113       0.20245806      -0.41106485       0.02668210       1.92820960
C        9.46743046       4.01107966       2.15816820      -0.03515232      -0.02640958       0.15004796      -0.29593003      -0.23998290       1.40311820
C       12.00704125       3.98477128       2.11980126      -0.07264778       0.06598438       0.17952821      -0.67968162       0.60380739       1.66036343
C        1.54500005       6.78813813       2.16766120       0.10346254       0.03076283       0.15581834       0.84776937       0.26637547       1.44860849
C        4.11720550       6.75573491       2.13611238       0.00135239       0.02163640       0.12968203       0.03046608       0.17060967       1.26806556
C        6.82233352       6.72457080       2.06307909       0.01386186       0.03368717       0.21170336       0.17557500       0.26720600       1.97236056
C        9.48423947       6.68741637       2.06652366      -0.14224656      -0.00697105       0.20561434      -1.24078890      -0.07232646       1.86727031
C       12.05434112       6.69257515       2.11866822      -0.02222639       0.03199654       0.18382278      -0.22991463       0.28041175       1.62637674
C        1.57176538       9.50409605       2.10147811       0.10233965      -0.04705489       0.13386285       0.82696172      -0.41496623       1.22946677
C        4.20012280       9.50085004       2.14235382       0.10516183       0.02699509       0.22672675       0.91853337       0.24714993       2.11594197
C        6.85310602       9.48059139       2.15676449       0.03242765       0.04004198       0.17066367       0.35223441       0.34343167       1.57003279
C        9.52657828       9.42180576       2.12674728      -0.03450425       0.00889112       0.15593603      -0.27520832       0.06515744       1.38598353
C       12.04311723       9.37745923       2.05437135      -0.04852243      -0.02321819       0.15696596      -0.44577419      -0.22493014       1.36256427
C        1.53563996      12.05402552       2.17686348       0.07600632      -0.18543255       0.22429344       0.63213808      -1.61806930       2.05102255
C        4.16952260      12.13002078       2.12439849       0.01854005      -0.04468279       0.17973696       0.15329298      -0.35403192       1.70160241
C        6.84274375      12.10460968       2.16176560      -0.00807702      -0.04828559       0.16706661      -0.01747129      -0.38541851       1.57178905
C        9.52117712      12.02407079       2.11529277      -0.08873665      -0.02888563       0.20907903      -0.75344843      -0.22819545       1.89397286
C       12.07902599      11.97290351       2.01896366      -0.03277615      -0.17673417       0.11313368      -0.31989566      -1.55340707       1.03080149
C        0.24198718       1.39779939       3.02552221       0.09269260       0.04196742       0.04240001       0.75909650       0.39261768       0.50092897
C        2.78623209       1.32772215       2.85767990       0.05433459       0.00276436       0.04096152       0.46929934       0.03732165       0.54233345
C        5.46258014       1.30316046       2.89432965       0.01254301       0.00697409       0.10318821       0.14475127       0.09127615       1.08970695
C        8.14508534       1.29535735       2.90253219      -0.03185442       0.00526253       0.13926717      -0.25213761       0.08353690       1.36943798
C       10.75849889       1.23775899       2.88116479      -0.08098668      -0.02129936       0.09113286      -0.72502218      -0.15416824       0.91268767
C        0.26153800       4.04124020       3.01915668       0.07704156      -0.01594261       0.11226673       0.62136174      -0.12599015       1.11984469
C        2.77993085       4.04788402       2.94603380       0.10440961       0.01453001       0.10209115       0.91472846       0.13363966       1.09583691
C        5.46145256       4.01936258       2.97142924      -0.00939103      -0.00277792       0.13482537      -0.04966882      -0.02609690       1.37594233
C        8.14530922       3.99692989       2.98441186      -0.03401813      -0.01404789       0.16272503      -0.27957592      -0.13230083       1.57593413
C       10.75193915       3.97951848       3.00054117      -0.08942217       0.02176818       0.16402318      -0.79854222       0.19297189       1.55464896
C        0.28500752       6.76486086       3.03483550       0.08718631       0.00496916       0.12306152       0.72583733       0.01234540       1.13331450
C        2.81730791       6.71411937       3.02701661       0.06660201      -0.01646398       0.14732960       0.56755846      -0.17665999       1.41046098
C        5.43490601       6.73296047       2.89860774      -0.02702897      -0.04551825       0.15642378      -0.19317282      -0.44557254       1.51520579
C        8.15324163       6.72426353       2.96121820      -0.04494430       0.00149293       0.16049195      -0.37031198      -0.03832948       1.49608714
C       10.78153622       6.70460914       2.96906402      -0.10934028       0.01228887       0.11588494      -0.96633229       0.06716391       1.04262939
C        0.28960981       9.45151768       3.00059250       0.09572846      -0.05208563       0.08217392       0.79784337      -0.46273558       0.75143830
C        2.84088204       9.55048951       3.00883222       0.08293801       0.03390704       0.15725525       0.70412211       0.28922894       1.47315230
C        5.51580811       9.46490447       3.01495428       0.02512409       0.00089492       0.17255788       0.25562375       0.00964052       1.63297521
C        8.21659988       9.45424733       2.97402752       0.02185148       0.05789522       0.13935582       0.22633384       0.51139493       1.27689527
C       10.79715018       9.42092436       2.97833516      -0.08260112       0.00638526       0.14400633      -0.71978904       0.04493573       1.25684249
C        0.27435446      12.04436113       2.98965535       0.03094441      -0.04864392       0.11507159       0.23729952      -0.41051676       1.07967156
C        2.84006124      12.20303879       2.88334002       0.06759542       0.03187004       0.08727819       0.57720069       0.31409561       0.90350419
C        5.50194357      12.22666813       2.91217326       0.00704377       0.06158202       0.11453764       0.09170668       0.57778780       1.15240907
C        8.20735189      12.18162539       2.90486320      -0.02478485       0.03262669       0.09021551      -0.19149655       0.33166651       0.90288895
C       10.81319264      12.08484784       2.85665058      -0.08540093      -0.02640231       0.04849956      -0.74833273      -0.19244517       0.49643904
C        1.50884917       2.67794817       1.22402495       0.13493572       0.01783663       0.26734894       1.06950052       0.16602763       2.51023020
C        4.19003427       2.73230903       1.26646058       0.04173501      -0.02098105       0.20500096       0.39367180      -0.17896019       1.97383675
C        6.81528298       2.63629822       1.26714711      -0.06340473       0.02760882       0.18338807      -0.50113470       0.27538583       1.72497099
C        9.56937704       2.52706156       1.32298701      -0.06056743       0.10601408       0.16994605      -0.54074139       0.95694319       1.57303799
C       11.99855320       2.54670812       1.33000452      -0.12308151       0.10276702       0.07618223      -1.14130322       0.92866249       0.76118708
C        1.40773005       5.56489553       1.21562327       0.16694325       0.10495417       0.11552637       1.42744206       0.96379150       1.09501678
C        4.17863934       5.57297275       1.10974456       0.03511943       0.15976717       0.09631869       0.33011478       1.39500481       0.98523368
C        6.83079031       5.36382440       1.25984368       0.01596318       0.03012394       0.23177734       0.19877052       0.27366424       2.15314522
C        9.44855073       5.29239480       1.24477417      -0.16954756      -0.02036673       0.15060024      -1.47254735      -0.15794427       1.38395901
C       12.17516605       5.32763465       1.34612863      -0.01171595       0.14874849       0.18112708      -0.17737883       1.33166697       1.64089699
C        1.66002956       8.16223888       1.49921266       0.17581818       0.00510853      -0.03652648       1.46697453       0.05183038      -0.26744740
C        3.95547048       8.23448655       1.38489266       0.05986590       0.03789267       0.23948865       0.58350958       0.30613173       2.21954848
C        6.86763723       8.26118027       1.12599553       0.07175578       0.15692609       0.13835956       0.72873441       1.33420641       1.30195616
C        9.46660894       8.04889205       1.23468634      -0.07833037       0.01229743       0.33981947      -0.64163569       0.08560242       3.03299675
C       11.98015162       8.09783747       1.21456877      -0.22043048       0.06325155       0.05508648      -2.00095927       0.54646876       0.48235959
C        1.51725180      10.88507755       1.30892355       0.14443780      -0.00507996       0.20125217       1.21436712      -0.08063080       1.82037345
C        4.40545369      10.92204753       1.35276381       0.02683310       0.00401296       0.12893654       0.20553305       0.02745770       1.25019345
C        7.01039384      10.92556104       1.41789284       0.22345790      -0.08239660       0.14483250       2.05383539      -0.71425698       1.34186967
C        9.51815012      10.81367630       1.25692343       0.06313327      -0.05203470       0.20020790       0.59381499      -0.49294337       1.79622711
C       12.11169080      10.57561272       1.15708494      -0.12023176      -0.06242470       0.14325693      -1.11576851      -0.55317930       1.29111202
C        0.08799687       0.22122320       3.91709974       0.14530314       0.08011231      -0.06148064       1.25412124       0.74231392      -0.44898031
C        0.25582014       2.72017520       3.91446410       0.07603696       0.01690699       0.15299108       0.62991576       0.17356440       1.49496124
C        2.77396480       2.66120041       3.90742200       0.07106003      -0.02191488       0.09484576       0.64246500      -0.16737606       1.02096077
C        5.44701196       2.63012652       3.91315992       0.00224901      -0.03574055       0.10947846       0.05010064      -0.28726579       1.16346813
C        8.13408935       2.61795500       3.91996672      -0.02894123      -0.02532527       0.13965539      -0.24721180      -0.19441209       1.39943670
C       10.75280698       2.59886147       3.93612192      -0.09774323       0.01956191       0.12472068      -0.87578339       0.20665554       1.24516351
C        0.26988504       5.40207532       3.91069502       0.08423213      -0.03095820       0.12471431       0.71217757      -0.31875028       1.19179630
C        2.79929513       5.39547294       3.91716798       0.07794704      -0.03318948       0.08431635       0.70066076      -0.33521279       0.89583072
C        5.46107376       5.34336348       3.88487386      -0.00891233      -0.01683411       0.06005354      -0.06207236      -0.21015786       0.70673164
C        8.15319726       5.35724448       3.89986218      -0.04653743      -0.01792774       0.11264503      -0.41017992      -0.22794519       1.11884724
C       10.76718849       5.33913312       3.91560042      -0.10415675       0.01940913       0.07784309      -0.93522382       0.10812365       0.77411670
C        0.28254208       8.11091520       3.90141976       0.08097725      -0.03740636       0.12351991       0.69648564      -0.36226489       1.08674949
C        2.78889662       8.12820393       3.92659947       0.03754157       0.00105240       0.09135422       0.33196967      -0.03764032       0.87969744
C        5.31910925       7.99199150       3.83570668      -0.03797744      -0.11643598       0.16129470      -0.29919725      -1.05873971       1.54310351
C        8.26875438       8.15725321       3.88659248       0.07069712       0.06487104       0.08112021       0.62221572       0.52961723       0.75210895
C       10.79986538       8.05697287       3.90559113      -0.06517913       0.02015095       0.04887125      -0.57172756       0.13144684       0.40300479
C        0.29622663      10.74621565       3.89517111       0.05332915      -0.04826573       0.16331969       0.44916035      -0.38760937       1.46720425
C        2.84227186      10.86233964       3.93910038       0.06574010       0.02045736       0.11569668       0.57828643       0.20920163       1.11184280
C        5.50086979      10.83680319       3.94105038       0.01061965       0.03055346       0.14096653       0.11554193       0.30661354       1.35003617
C        8.19921217      10.82575887       3.93006676      -0.02410708       0.06239753       0.10375459      -0.20797575       0.59688059       0.97543483
C       10.80748724      10.79577607       3.92425241      -0.09635029       0.02552021       0.07484809      -0.85454638       0.26493230       0.67983353
C        1.48577060       1.50210195       5.91303866       0.13244786       0.19279588       0.06199776       1.17255397       1.74826721       0.63869720
C        4.10298765       1.48422035       5.91829966       0.05799240       0.24418436       0.08430852       0.54393692       2.21958211       0.83378023
C        6.79445143       1.44891821       5.89917735      -0.01722344       0.19495099       0.07701910      -0.15223299       1.79906463       0.76162295
C        9.44448854       1.43976390       5.91740333      -0.07005887       0.24753521       0.08691957      -0.63568610       2.25730266       0.84401605
C       11.99889194       1.47420963       5.89172526      -0.05461714       0.18684069       0.13540533      -0.49283616       1.69717239       1.27516219
C        1.49690029       4.07242033       5.83705297       0.12356729       0.04825885      -0.00473585       1.11853738       0.40489930       0.07993101
C        4.10872868       4.04688675       5.81358888       0.06398298       0.03790193       0.00467227       0.61940903       0.32869300       0.19095966
C        6.80735801       3.99808937       5.82446538      -0.01696327      -0.01913737       0.01143961      -0.16287006      -0.19669369       0.24442688
C        9.47033808       4.00325409       5.81802369      -0.09770368       0.04742230       0.01883008      -0.88697870       0.38149087       0.30408763
C       11.99983777       4.00695323       5.81460370      -0.06478800       0.09175909       0.05003743      -0.61613940       0.77405953       0.56791923
C        1.51118080       6.78099632       5.83082341       0.10541768      -0.03004169      -0.03586111       0.98723914      -0.38426277      -0.28902082
C        4.10853209       6.74871722       5.80925491      -0.00763157      -0.02921698      -0.03847547      -0.04839864      -0.37600594      -0.26335426
C        6.76588459       6.51329240       5.85249163      -0.06738972      -0.16243239      -0.11856746      -0.62066106      -1.54327378      -1.01323729
C        9.48793738       6.71703955       5.79075165      -0.09917971      -0.02970961      -0.08182221      -0.93022047      -0.41271491      -0.74226434
C       12.01849756       6.69662083       5.79617400      -0.07049719       0.03800147       0.00380660      -0.59075876       0.18806762      -0.00770608
C        1.53843036       9.47810499       5.84369207       0.11058163      -0.06634460      -0.01545082       1.02041273      -0.58462683      -0.14495485
C        4.14576152       9.45109862       5.80911654       0.03201325      -0.05348083      -0.01671263       0.30242168      -0.48797810      -0.11554900
C        6.89362364       9.51617910       5.85348727       0.04279613       0.09513589      -0.01035291       0.34739631       0.86962203      -0.07040939
C        9.52039078       9.39166267       5.82689512      -0.04888151      -0.04996279      -0.01999737      -0.49810104      -0.42324246      -0.22096650
C       12.03655006       9.38660232       5.81064231      -0.06518586      -0.00423486       0.05447596      -0.53400324      -0.01855686       0.40835077
C        1.53693574      12.04916891       5.90839919       0.10898512      -0.22889053       0.04391300       0.97241731      -1.91865086       0.44755547
C        4.16989712      12.02329467       5.90227428       0.05107209      -0.21811710       0.09553913       0.46292263      -1.83023889       0.91023779
C        6.84459753      12.01592821       5.90209386      -0.02698533      -0.17584944       0.06109842      -0.24889152      -1.44428924       0.59137940
C        9.51037460      11.96864477       5.92533918      -0.10799960      -0.20915444       0.09028740      -0.97449815      -1.71708019       0.83833704
C       12.06878115      11.95854333       5.87573962      -0.09007205      -0.12739517       0.14785495      -0.78436127      -0.99163037       1.33344457
C        0.24571650       1.15117498       6.61596173       0.09574106      -0.28561288      -0.27729709       0.82301337      -2.44979057      -2.46157846
C        2.78267564       1.20694785       6.56409352       0.11760613      -0.28496625      -0.26117271       1.06293704      -2.46541594      -2.31040673
C        5.44971300       1.18022516       6.56427870       0.02493101      -0.23268779      -0.23033581       0.25404662      -1.98464826      -2.04367235
C        8.14457096       1.12533247       6.54644826      -0.03195023      -0.26719734      -0.27743754      -0.28923439      -2.27716143      -2.47649949
C       10.75378968       1.07993413       6.54134044      -0.12216041      -0.26392253      -0.28755288      -1.09179645      -2.23077879      -2.55741464
C        0.26213309       4.10357875       6.71147568       0.10433710       0.05259028      -0.12689037       0.90452755       0.41517728      -1.11153341
C        2.79374762       4.12269950       6.61633174       0.11257899       0.13632156      -0.10647206       1.03595908       1.19243274      -0.89413504
C        5.45463798       4.06713473       6.61095771       0.01220336       0.04877695      -0.10931211       0.12436151       0.39902940      -0.93954784
C        8.14551939       4.08207106       6.63266391      -0.07156225       0.09905309      -0.13049749      -0.65241178       0.81369115      -1.14608586
C       10.74975369       4.04590167       6.62989289      -0.12578190       0.14966504      -0.09146049      -1.13432909       1.26471755      -0.78950541
C        0.26549076       6.80124140       6.69927121       0.08882027      -0.03216855      -0.16937980       0.81808568      -0.41625086      -1.49811975
C        2.80584040       6.75164475       6.64054167       0.07378612      -0.03790569      -0.08210398       0.69919032      -0.46175520      -0.68779016
C        5.45694167       6.75854903       6.64916794      -0.03452528       0.05818243      -0.13048713      -0.30918752       0.40925622      -1.13212014
C        8.17060850       6.72428908       6.62649162      -0.10680176      -0.00953702      -0.17551297      -1.01476024      -0.23185907      -1.55118316
C       10.76708392       6.68078878       6.61773038      -0.12987792      -0.00889815      -0.11353259      -1.16438395      -0.24883181      -1.01273142
C        0.29473290       9.39654158       6.70190875       0.10784753      -0.17846691      -0.15062636       0.98271995      -1.57355838      -1.31819233
C        2.82311852       9.43485457       6.62268490       0.09616283      -0.14581368      -0.07674116       0.89248181      -1.31451964      -0.64239707
C        5.48310029       9.38247561       6.65472144       0.02407795      -0.16415563      -0.12370157       0.21481650      -1.49298975      -1.06643685
C        8.20822558       9.33983728       6.65888294      -0.03076463      -0.16159608      -0.08239066      -0.33311262      -1.43723543      -0.71828656
C       10.80324978       9.34867429       6.65036190      -0.12702190      -0.13747800      -0.09115234      -1.13506685      -1.19570189      -0.81050917
C        0.29290142      12.35753025       6.61372302       0.07009163       0.24773390      -0.29921769       0.61112568       2.31295198      -2.63906635
C        2.84507519      12.33610108       6.54827834       0.07751620       0.27080995      -0.21499917       0.69842985       2.50838942      -1.89494901
C        5.49720181      12.28906004       6.54408675      -0.00281358       0.27473861      -0.24969584      -0.01347625       2.55851583      -2.20180496
C        8.18766576      12.31169321       6.57336679      -0.04262455       0.27900256      -0.21831404      -0.39381105       2.59855411      -1.94091510
C       10.80254754      12.32153438       6.54185113      -0.14450134       0.30760786      -0.26837842      -1.29500289       2.86159503      -2.37338813
C        1.48968632       2.68092044       4.83122669       0.10979046       0.01639250       0.11483212       0.96609741       0.18753194       1.16938953
C        4.10510572       2.65500911       4.82883313       0.04696213      -0.01425111       0.05870219       0.44457918      -0.07302433       0.70828723
C        6.79843121       2.61710375       4.82835352      -0.00760779      -0.01469111       0.09008871      -0.05323087      -0.08860583       0.98600935
C        9.45748416       2.60998171       4.83242516      -0.06511606       0.00919739       0.09722041      -0.59090919       0.13558190       1.02315254
C       11.99363473       2.64615833       4.85534017      -0.06430310       0.04878630       0.06260480      -0.58737540       0.46665101       0.70831026
C        1.50651962       5.42186463       4.83010109       0.11604438      -0.02970366       0.03941136       1.03357122      -0.34247299       0.46081515
C        4.12375902       5.39341527       4.81971601       0.03367032      -0.01348354       0.02165142       0.32417814      -0.20137986       0.34747938
C        6.81684551       5.31089912       4.82120981      -0.04476682      -0.06101228       0.05003759      -0.40282644      -0.64150009       0.58319343
C        9.47789915       5.36879603       4.81102243      -0.09675643       0.00975582       0.02883295      -0.87812464      -0.03389476       0.34937658
C       12.01345845       5.36102316       4.83832100      -0.06391398       0.03762664      -0.00794179      -0.56762450       0.22139055       0.01923137
C        1.51747678       8.12177038       4.82305563       0.09474165      -0.03770194       0.03995626       0.85279137      -0.39037362       0.38183063
C        4.05190774       8.10045117       4.80886427      -0.02316147      -0.06176125       0.00035903      -0.18424237      -0.60996581       0.08647686
C        7.22093018       8.44021390       4.90556114       0.15647040       0.15167311       0.11008069       1.35914357       1.29327912       1.02226240
C        9.54553091       8.06624931       4.81110165      -0.00275006      -0.00823758      -0.02204852      -0.05104806      -0.12681973      -0.21621601
C       12.03056580       8.05384332       4.82995740      -0.06138891       0.00238092      -0.01740824      -0.51993953      -0.03976907      -0.18016877
C        1.53858334      10.84701810       4.83433558       0.09983178      -0.01932661       0.09596937       0.88440646      -0.12886989       0.90493638
C        4.16144652      10.84770538       4.83637680       0.03919002      -0.00231153       0.08852366       0.35896561       0.01221860       0.87465985
C        6.85401032      10.86288698       4.84585607       0.00145585       0.09505832       0.06882750       0.01371296       0.89952532       0.68697346
C        9.51708546      10.80339889       4.83660310      -0.08020033       0.01920721       0.09548948      -0.72819277       0.23260036       0.86694408
C       12.04930868      10.76390887       4.84939774      -0.07793466       0.01624148       0.05327870      -0.67833813       0.21043017       0.49246880
Ga      10.80107834       2.41048923       9.26663127       0.00150863       0.02179004      -0.08672669      -0.04670981       0.26786830      -1.10055713
Ga       9.53666634       5.60648582       9.26901054      -0.01828580      -0.02144389      -0.06036392      -0.26995028      -0.54850104      -0.73181130
Ga       8.28912488       8.81306128       9.26368191      -0.02909785      -0.00930405      -0.05409322      -0.43171638      -0.12273497      -0.50227963
Ga       7.07931214      11.97072309       9.27775827       0.35970723      -0.24596660       0.01934506       3.16139919      -1.97504598       0.03660589
Ga       1.80886616       0.76122862       9.28551798      -0.34242122       0.35001261       0.04857296      -3.00785280       3.33266931       0.19554321
Ga       0.73602380       3.63400733       9.23750918       0.41951851      -0.93885686      -0.30143885       3.72946872      -8.34307714      -2.99273027
Ga      12.80547098       5.39892574       9.26353056      -0.41093037       0.89132467      -0.15474457      -3.54981686       7.50056489      -1.56745471
Ga      11.69567051       8.30159849       9.26888521      -0.00384727      -0.04098070      -0.00512932      -0.02951075      -0.44358440       0.00068262