 -3.3685088e-01   1.0683674e-03
  1.2403517e-01   8.5132942e-03
  6.3133729e-01   1.4582996e-03
  3.4623884e-02   1.3696996e-03
 -1.2057121e+00   2.6188139e-03
  4.4902477e-02   6.1100512e-03
 -2.9983252e-01   4.4067176e-03
 -1.1032600e+00   2.8318092e-03
 -7.1732793e-03   3.5700342e-04
  5.7004023e-01   8.6039705e-03
  1.6710778e-01   3.8442283e-03
  2.7419187e-03   2.0476407e-03
  1.1809703e+00   2.6779002e-04
  8.9319140e-01   1.1616864e-03
  2.9224906e-02   1.6266545e-03
 -1.6036299e-01   9.8026032e-04
  5.7271135e-01   3.2027654e-04
  4.0352631e-01   5.2981934e-04
 -8.3774924e-01   7.6568509e-03
  6.8396933e-02   4.2186081e-02
  1.6355623e+00   1.6179956e-04
  2.8488824e-01   3.1696117e-04
  3.2361431e+00   2.3911577e-03
 -2.1185682e+00   1.7065447e-02
 -4.9595442e-01   1.3945255e-02
 -7.9547130e-03   2.7927209e-02
  1.6321005e-01   8.9101847e-03
  6.8688864e-01   5.8768969e-03
 -7.8490305e-01   3.5782699e-03
 -1.0706284e+00   3.9688731e-03
 -3.3977181e-01   9.1512731e-05
 -1.1882890e+00   1.7100580e-03
  3.0854697e+00   3.0689982e-03
 -1.0486438e-01   2.7480891e-03
 -2.5903156e+00   1.5402305e-03
 -7.5336158e-01   8.1181256e-03
  1.7625469e+00   2.9854439e-03
 -3.1564981e-01   8.5943723e-03
  1.9068530e+00   2.0262888e-02
 -1.5745646e+00   1.8242884e-02
  3.1599483e-01   1.8127410e-03
  9.3947664e-02   5.4387748e-03
 -3.1463793e-01   1.8276422e-03
  2.6091697e+00   4.1768246e-04
 -3.7424312e+00   3.8101505e-03
 -5.7590872e-01   1.2107071e-03
 -4.2241707e-01   3.4059765e-04
 -1.4251722e+00   5.5834680e-04
 -5.1235557e-01   5.9058669e-04
  7.3861584e-02   3.4315200e-03
 -3.1966573e-01   9.8269491e-04
  1.3134874e+00   1.5462659e-03
 -1.5727117e+00   1.5729937e-03
 -2.0252632e-01   9.0164775e-03
  5.7590777e-01   2.0527704e-02
  2.6848269e-01   3.1831164e-02
 -3.0511702e-04   2.4564397e-02
 -2.4508419e+00   3.3153768e-03
 -1.5057453e+00   3.8347882e-03
 -4.0089780e-01   2.5089092e-03
  1.0288239e+00   6.0326711e-04
  7.7748060e-01   6.4382103e-04
 -2.3781663e-01   5.1918719e-04
  3.1066539e+00   2.6022500e-04
  1.0513401e+00   1.3341996e-04
  6.2993759e-01   1.1707901e-03
  1.3616496e+00   1.9723296e-04
 -1.5617304e+00   8.7940425e-04
  5.2448636e-01   6.9077094e-03
  1.3695611e-02   1.9570184e-03
 -4.9165925e-01   1.1217959e-04
 -1.0250177e+00   1.8835019e-03
 -2.5412354e-01   5.0467520e-04
 -7.6296568e-01   7.5905101e-04
  1.2068547e+00   1.1474818e-03
  3.4868814e-02   7.3026618e-05
  1.2075871e-01   7.4191822e-04
  1.1117795e+00   2.2258435e-04
  1.7275821e+00   1.7736367e-03
  1.8900619e-01   4.5065666e-03
  1.1450477e+00   5.2098749e-04
 -2.3611900e-01   4.2456493e-04
 -3.3634716e-01   8.3181896e-04
 -8.7450927e-01   3.5767286e-04
  1.4334821e+00   2.1202192e-03
 -2.9068644e+00   4.4921995e-04
 -2.5170799e-02   4.3249500e-04
 -1.1750025e+00   1.2896268e-03
  2.1498075e-01   7.0707658e-03
 -1.2016834e-01   1.3524833e-02
 -8.7375455e-02   3.3190396e-02
  2.5235347e-03   1.5088094e-02
 -1.2339146e-01   1.8232493e-03
  1.4642531e-01   9.5338644e-03
  2.4994161e-02   8.9048678e-03
  1.6863343e-01   5.9225138e-02
 -9.8603010e-02   2.6714254e-02
  3.9626971e-02   6.5931231e-02
 -1.3316531e-01   3.1373901e-03
 -6.5059587e-02   1.7407369e-03
 -4.1084491e-02   3.3786643e-02
 -3.6265090e-02   2.0986008e-02
 -7.1434435e-03   4.7009271e-03
  1.7101455e+00   1.0420108e-02
 -1.1364827e-01   2.6006650e-02
 -9.3137926e-01   1.1064536e-03
 -1.0478115e+00   2.8067557e-02
 -1.4978498e-01   1.6973812e-02
 -2.1864455e+00   2.7651092e-04
 -4.0495796e-03   2.3146966e-02
  2.1926663e+00   1.3194356e-02
  8.3977938e-02   3.6621802e-02
  1.1439157e-01   1.0408340e-02
 -8.1249610e-02   2.8089657e-02
  1.5492609e-01   5.5787526e-04
 -4.4823846e-01   4.1907161e-02
  3.0574572e-01   2.2921238e-02
  1.5934511e+00   1.5229464e-04
  2.1029100e-01   8.6582899e-03
  3.4220856e-01   4.1235227e-02
 -4.4447675e-02   2.0632705e-02
  1.7345983e+00   1.6053882e-03
  1.3527498e-01   1.8892711e-02
  5.0195757e-02   8.1022969e-03
 -5.1052046e-01   4.1098399e-03
  1.2461606e-01   4.2200513e-02
 -4.5372009e-01   7.6695732e-03
  7.4187964e-02   3.9243031e-02
  1.6102452e+00   1.5340123e-03
 -5.2005833e-01   6.2832283e-04
  7.7575690e-01   4.6406337e-04
 -7.6131634e-02   2.1204567e-03
  8.0720729e-01   1.2364929e-02
 -3.4754977e-02   2.0696199e-03
  6.9090448e-02   4.4880580e-02
 -8.2572830e-01   4.5504246e-04
  3.2780391e-01   7.5096602e-04
 -9.6136965e-02   6.9068996e-03
 -1.8194811e-02   2.0239469e-02
 -1.0650667e-01   6.8805227e-03
  3.4091306e-01   1.0428381e-02
 -4.3222293e-02   4.7629721e-02
 -1.8506359e+00   4.3736727e-04
 -2.6051454e-02   3.2952864e-02
 -1.2931391e-02   3.0654890e-03
 -1.2920210e-01   9.9228984e-03
 -1.4857817e-01   2.6609607e-02
  3.9645959e-02   1.7941341e-02
  9.9396996e-02   2.7317740e-02
  8.1597574e-02   4.9095236e-02
  5.3748780e-01   9.3827182e-03
 -1.6560353e+00   7.2004029e-04
 -6.3554633e-01   7.5461795e-03
 -3.1083444e-01   7.4827187e-03
 -9.0108022e-02   3.0324748e-03
 -7.3572224e-01   2.3214335e-02
 -1.7180538e-01   5.4571317e-03
  5.1705909e-01   5.2598596e-05
  1.3661958e-01   1.5648209e-02
 -1.5977113e-01   1.9371605e-02
 -9.7937745e-01   6.7342580e-03
 -1.7510079e-01   1.2316422e-02
 -1.2525187e+00   9.2838733e-03
  1.5251498e-01   1.6732458e-02
 -1.3618528e-02   2.5479498e-04
  5.7173312e-01   1.0960528e-05
  1.3242626e-01   3.8754733e-03
  4.7210675e-01   1.7748434e-03
  2.0820780e+00   9.3114865e-04
  2.9917398e-01   3.8377529e-03
  2.6032526e+00   1.7134245e-03
 -4.6371643e-02   7.1593081e-03
  2.0976973e+00   9.0271496e-05
 -5.0276518e-01   1.8803972e-03
  8.4912684e-03   1.3398966e-02
  5.2622986e-01   3.4219836e-04
  7.5768329e-02   1.3736513e-02
 -7.1936320e-03   5.4036016e-03
  1.5164366e-01   1.1187337e-02
  2.4756011e-01   1.3305912e-02
 -7.6354086e-02   6.5430687e-03
 -6.8609589e-01   1.0566467e-03
 -1.4530127e-01   6.1626984e-03
  2.0226040e+00   3.3428434e-03
  3.9533770e-01   2.0035249e-03
  9.3642935e-02   6.1031594e-03
 -1.8241512e-02   4.7418321e-03
 -2.6305437e-01   3.4732024e-05
  6.6574171e-02   1.0172335e-02
 -3.7141794e-01   1.1127200e-02
 -4.3569154e-01   1.1465809e-03
 -4.7875535e-01   2.5941653e-03
  1.2721722e+00   5.0021632e-04
  8.6067426e-01   4.3279906e-03
  3.3028278e-02   1.6920542e-02
  6.4893954e-02   3.3845915e-03
  6.1750942e-01   9.2770648e-04
 -1.2742184e+00   3.7783559e-04
  9.1006309e-01   1.4540431e-02
 -5.3557456e-01   1.2210307e-02
  1.0894781e+00   7.7629159e-03
 -6.8108566e-02   1.3022410e-02
 -4.6832174e-01   5.4380796e-03
  6.4275956e-01   1.9383738e-03
  4.9193475e-02   2.3296576e-02
 -1.6255595e-02   1.3521740e-03
  1.3411240e-01   1.3002145e-02
  2.1306537e-03   8.2289160e-04
 -6.0994869e-01   2.7270945e-02
  1.2512006e-01   1.7701566e-02
  1.4778276e-01   1.1641037e-02
 -2.5341362e-01   2.9902763e-03
  6.6865698e-02   1.0942302e-02
 -5.1717705e-01   7.4962988e-03
 -1.3210092e-01   1.9283157e-02
 -1.5866625e+00   1.5000086e-03
 -1.0536209e-01   1.0452860e-02
 -1.8811052e+00   8.8992743e-03
  8.0842309e-02   1.0091830e-02
 -1.6018048e-01   3.0224793e-02
  2.4799092e-01   1.1956743e-02
  5.4772697e-02   1.0725816e-02
 -7.2644073e-01   3.7155976e-03
  2.3349227e-02   1.5088514e-02
 -5.0977755e-01   1.3336365e-03
  1.4733463e-02   1.5976068e-02
  4.1921917e-01   1.6680488e-02
  6.2593699e-02   3.1611375e-03
  2.9425049e-02   3.5268914e-02
 -1.4389830e-02   3.0419407e-02
 -3.7351590e-02   1.3808845e-02
  4.3517768e-02   1.3536088e-02
  1.9859595e-02   2.4413655e-02
 -1.8589016e-02   2.0503461e-02
 -7.7230603e-01   1.3853299e-02
  2.2093046e-01   2.0859903e-02
 -1.6083521e-01   4.4004880e-02
 -4.0129769e-01   9.0409862e-03
 -8.8699132e-02   5.5446639e-03
 -1.7979749e-01   6.7987211e-02
  1.7261567e+00   7.1332818e-03
 -1.2970177e+00   3.9812964e-03
 -2.2636434e-01   7.1881544e-03
  6.3372046e-01   1.0087099e-02
  3.6797780e-01   1.9495434e-03
 -1.9877728e-03   8.9235026e-03
 -5.3622007e-01   3.5647803e-03
  1.9568660e+00   2.0129322e-03
 -6.8488024e-02   2.8726151e-02
  5.9833314e-02   2.2148353e-03
  5.8600497e-01   1.8746499e-02
  3.7841809e+00   2.8530662e-03
 -2.8257236e-01   1.1041213e-03
  1.6495879e-01   7.7684026e-04
  1.0802512e+00   8.1422189e-03
  2.3213606e+00   3.3288724e-03
 -1.7164372e+00   9.1208558e-04
 -1.7361283e+00   1.9772502e-03
 -2.5366947e-01   2.3316642e-02
 -1.8025400e-02   1.2597294e-02
 -4.1673046e-02   2.1078240e-03
 -1.7992733e-01   1.0532841e-02
  3.7301302e-01   2.6199010e-03
  1.0106001e-01   6.6832858e-05
  2.3413038e-02   3.0330293e-02
 -8.9991696e-02   1.5748594e-02
  1.8910858e-01   1.4854396e-02
  1.2964143e-01   2.3442807e-02
 -5.3089779e-02   4.8246142e-03
  2.2060367e-01   2.4009496e-02
  2.7161205e+00   2.6004503e-03
  3.5024014e+00   1.8380013e-04
 -2.0136912e+00   1.8089676e-03
  7.9461163e-01   2.4077019e-03
 -4.7775817e-01   4.5200213e-04
 -6.5923667e-01   1.1475742e-02
  1.8719333e+00   5.0338423e-03
 -9.8995221e-01   2.8578285e-03
 -1.2344013e+00   8.4960172e-03
 -4.1317892e-01   9.0012094e-03
 -9.8461252e-01   2.0774629e-04
 -1.6643433e-01   2.5675730e-03
 -1.1926380e+00   2.7042495e-03
  1.6772171e+00   2.8030484e-03
  1.0503259e-01   9.8240422e-03
  2.0787561e+00   1.8864744e-03
 -3.3859661e-01   2.0473110e-04
  2.8480546e+00   1.3050868e-04
  1.7808968e+00   3.6427346e-03
  2.9916980e-03   6.4387452e-03
  4.2867357e-01   1.7929840e-03
  1.2468098e-01   4.2658625e-03
  2.7429805e+00   1.2419327e-03
  4.8536950e-01   1.6594104e-03
 -1.6763316e+00   5.8157096e-04
  1.9902614e-01   3.9542470e-02
 -3.6480966e-01   4.5221172e-02
  1.3171004e+00   9.4610797e-03
  1.1733402e+00   3.1281798e-03
  3.5181376e-01   2.1685939e-02
  6.0012072e-02   1.4594748e-03
 -1.1662912e+00   1.7803489e-03
  5.9207439e-02   2.7926536e-03
 -6.5194893e-01   1.6606713e-03
 -1.0083265e-01   2.6786298e-04
 -2.3871961e+00   1.2127359e-02
  9.4646174e-01   3.9506941e-03
  1.3608998e-02   4.1752167e-02
  1.3619648e+00   5.0979354e-03
  1.4817313e+00   3.2904637e-03
  9.3629861e-01   7.8391761e-04
 -3.3066472e-01   9.1934782e-03
 -3.5343668e-01   3.8740151e-03
 -7.4415869e-01   2.7481338e-03
  1.8271206e-02   1.0972396e-02
 -5.0351411e-01   2.6287099e-03
  4.4635060e-01   5.7458119e-03
 -6.6816479e-01   1.2042109e-03
  2.2443950e-01   2.7997897e-04
 -4.2199296e-01   3.1524386e-02
 -1.8794121e+00   4.0889333e-04
 -1.3165072e+00   4.3215607e-03
 -5.0738144e+00   1.1352691e-03
  1.6179812e+00   5.8900979e-03
  1.7426826e-01   4.0923287e-03
 -9.4905999e-03   2.0068372e-02
  7.3948961e-01   1.3127659e-02
  6.9567603e-01   1.9135127e-02
  1.1026551e-01   4.4048321e-02
 -2.8584532e-02   3.3054288e-02
  9.0292120e-01   4.9318871e-03
  2.1763749e+00   9.0826405e-03
  1.7388427e+00   6.6408799e-03
  4.3630406e-01   6.4130989e-03
 -2.8123298e-01   2.2925113e-03
 -3.0420043e+00   1.4745317e-05
  2.6459777e-01   6.5583210e-03
 -7.1986210e-01   1.4956845e-02
 -2.5798115e-01   2.2448394e-02
 -6.7639560e-02   2.9965486e-02
  5.5608523e-01   8.7163120e-04
 -1.0370839e+00   5.0136860e-04
  1.8804039e-01   3.3081514e-03
  8.0006188e-01   5.9966178e-04
  1.2020729e+00   9.8469562e-04
  2.2823472e+00   2.6488239e-03
 -1.5013264e-01   1.1394784e-03
 -4.6497232e-01   5.6478088e-03
 -1.4937553e+00   1.2628087e-02
 -2.4213669e+00   7.9830014e-04
 -1.4969765e-01   1.3880624e-04
  7.1411610e-02   1.4533240e-03
 -1.9931649e+00   3.4547346e-03
  7.8566939e-02   1.7787972e-02
 -8.3822793e-01   9.9382009e-03
 -2.2336280e-01   1.5885358e-03
 -2.5594644e-03   1.2769853e-02
  1.7278926e+00   1.3286509e-02
 -5.2596703e-02   2.1231640e-02
 -3.6705524e-01   1.8729437e-02
 -5.2863967e-02   6.3232109e-03
  3.5392642e-01   1.1249836e-02
  1.1991183e-01   6.6620009e-03
  2.1260491e-01   1.6351807e-03
  7.7703798e-01   4.3494063e-03
  7.4779642e-01   7.1071279e-03
  1.1527661e-01   1.1137536e-02
 -4.7228140e-01   4.9520824e-03
 -3.4400931e-01   1.3205614e-02
 -3.8573289e-01   2.3512130e-03
 -6.7854591e-02   5.0565321e-04
  2.0346143e+00   1.7748017e-02
  1.6126666e+00   2.7008692e-04
  4.1382822e-01   1.6527215e-03
 -2.0893395e-02   2.0188544e-02
  2.7145085e+00   1.6977774e-03
  2.3011799e+00   4.3682386e-03
  7.1507245e-01   3.8439361e-03
  7.1297699e-01   4.5140674e-03
 -4.4785328e-02   1.5267782e-02
 -1.6285310e+00   4.2724838e-03
 -3.2600033e-01   1.3879288e-02
 -1.1437641e+00   4.2023733e-03
 -4.5045808e-02   3.7809011e-02
 -1.8067384e+00   1.1674833e-02
 -1.5252212e-01   3.7282258e-02
  9.3545991e-01   5.8923382e-02
  1.2710783e-01   3.2324791e-03
  3.8671359e-01   1.7125418e-02
 -2.0599805e-02   5.1744599e-02
 -1.0496759e+00   9.9660188e-04
 -5.0054783e-01   4.5841205e-04
 -9.3218398e-01   4.7908683e-04
 -7.7463657e-01   5.9320370e-04
 -1.0222653e-01   1.1601689e-03
 -1.2647510e-01   9.4768852e-03
  8.3627832e-01   2.8012702e-04
  2.4262247e+00   1.0800050e-02
 -3.0721407e+00   1.7452968e-03
  3.1420574e-01   1.0705749e-02
  6.6124484e-02   1.3977595e-04
 -9.9955630e-01   6.9007315e-03
  9.2291695e-01   3.5450573e-03
 -3.5161977e+00   5.4222182e-03
 -8.4593511e-01   2.1063689e-02
 -6.3407391e-01   2.2629793e-03
 -4.0559781e-01   1.4916804e-03
  5.8465308e-01   1.9638978e-03
 -8.8066265e-02   5.1143719e-04
  3.4215586e+00   1.2782250e-03
 -1.2449814e+00   2.1078924e-03
 -5.0688243e-01   7.3605911e-03
  9.0370876e-01   1.7262563e-03
  1.7928730e+00   1.8606862e-02
  2.7599151e+00   8.6097483e-05
 -9.4658625e-04   2.0122267e-02
  8.0746198e-01   1.6130850e-02
  4.1802090e-02   4.9364567e-03
  9.3581013e-02   2.2876407e-03
  1.7369245e+00   7.3402643e-04
 -1.7596915e+00   1.4649343e-02
  8.2363427e-02   4.1583604e-03
 -2.4865723e-01   2.4536340e-03
 -2.3316495e+00   1.2629445e-03
 -7.3354107e-01   2.8285561e-03
  6.5740222e-01   1.4500984e-02
  1.1968101e+00   1.0684132e-02
  3.1722829e-02   1.1850551e-02
  1.7239587e+00   6.9301659e-03
 -5.2592075e-01   2.5442233e-03
  2.1984890e+00   2.6910545e-03
  1.0272652e+00   6.2923455e-03
 -4.3424594e-01   4.9490621e-03
  3.5253918e-01   7.5957812e-03
 -3.0122766e-01   1.1141108e-02
 -8.9143723e-02   4.7554569e-03
  3.5209078e-01   6.4142216e-03
 -3.1751230e+00   5.0409772e-03
 -1.2321613e-01   4.4406555e-03
 -9.2561534e-03   2.2563261e-03
 -1.3729950e+00   6.6509373e-03
 -6.2798351e-01   1.8299067e-02
 -1.0914490e-02   7.2211698e-03
  9.8429579e-01   5.5434434e-03
  1.7090497e+00   3.5910392e-03
  8.4130391e-03   2.2532275e-02
  3.4372962e-01   1.8146580e-02
 -4.5077729e-01   2.6751278e-02
 -3.5114989e-01   2.7829085e-02
  2.4291652e-01   2.2061599e-02
 -1.1998113e-01   8.6815301e-03
  2.2693956e-02   6.1127492e-03
 -7.6708131e-02   6.7415005e-03
  1.9882372e-01   1.5646132e-04
 -2.7581498e-01   2.7357407e-02
 -1.5028125e-01   4.7692019e-02
 -3.9749965e-01   2.0236350e-03
  6.6985175e-02   1.0959343e-02
 -9.7453177e-01   7.6088845e-04
 -2.7600011e-01   1.8058006e-02
  2.8527641e-01   3.3571769e-02
 -6.6250719e-02   1.8977586e-02
  1.3581252e-01   2.7967013e-02
 -4.8214242e-02   1.3419636e-02
  2.8514603e-01   1.1566699e-02
 -1.1834984e+00   8.2961312e-03
  5.3748824e-03   3.3496358e-02
 -1.6304030e-01   1.5527480e-02
  2.5007045e-01   1.3977925e-02
 -4.4977490e-02   9.5444852e-03
 -1.3867123e-03   2.6287045e-03
  6.7866117e-02   9.5275398e-03
 -5.5562925e-01   4.5466507e-03
 -5.9856128e-02   3.1580500e-02
 -1.2616038e-01   1.9653067e-02
 -2.3852039e-02   6.0270871e-03
  6.2620980e-01   1.9682494e-04
  5.6204879e-01   1.2327690e-04
 -4.9246047e-02   7.0516992e-04
  1.2885356e-01   3.7362956e-02
  1.2471225e-01   2.8208386e-02
  4.2088771e-01   3.9998456e-05
  1.6733707e-01   3.0137420e-02
  1.8924601e-01   3.1296490e-03
  2.4304712e-01   2.8492419e-02
  1.6243063e-01   9.5419856e-03
 -2.0509088e-01   2.4659604e-02
  4.3933708e-02   3.2932457e-02
 -3.3872428e+00   1.1204262e-03
  1.5307766e-01   1.2733608e-02
  2.0019148e-01   1.8221568e-03
 -8.5164881e-01   8.9226691e-03
 -3.1858721e-01   6.8175397e-03
 -1.6352668e-01   3.3147703e-03
 -9.2821233e-02   1.1226344e-03
 -3.0943892e+00   1.0354234e-03
 -1.8402189e+00   1.1543647e-03
  1.8142103e-01   2.8855918e-02
 -6.1226882e-02   1.9160969e-02
  1.2309523e-01   2.7747242e-02
  3.0675125e+00   2.9839189e-03
 -5.5782765e-02   2.8973553e-02
 -1.6439369e-01   6.3903448e-03
  6.6999204e-02   9.7411387e-03
 -3.8439126e-03   3.8875663e-03
  1.5164242e-02   3.9253499e-02
  5.4298329e-01   3.8476863e-03
 -2.2079688e-02   1.3605987e-02
  1.7837006e-01   1.5421743e-02
 -6.8857700e-02   1.3944360e-02
  8.1366017e-02   2.6241986e-03
  5.2476704e-01   6.1876415e-03
 -1.5568259e-01   3.9748731e-03
  9.3621733e-03   1.3393757e-03
  3.3151677e-01   1.1618152e-03
 -3.9772588e-01   4.7626165e-03
  6.0039973e-01   4.3807160e-03
  1.6330029e+00   2.7157545e-02
  1.7389499e-01   1.5818296e-02
 -1.7141090e-01   1.7264150e-02
  4.7992828e-01   4.7920825e-04
  5.4242402e-01   1.0961807e-02
  1.7982282e-01   1.7371678e-03
 -1.0381409e+00   4.3066591e-03
 -1.5705640e+00   2.1883247e-02
 -2.2791469e+00   1.7988984e-03
 -4.0584975e-01   3.7336370e-04
 -5.5631943e+00   3.0630883e-03
 -4.6745806e+00   3.2552797e-03
 -3.5416865e-01   1.1852326e-02
  1.1399361e+00   1.2151488e-03
 -5.0336570e-01   6.1438074e-03
 -1.5121189e+00   2.9770921e-03
  1.4479936e+00   3.6740388e-05
  1.5364951e-01   1.4748562e-02
  7.3041576e-01   1.4072196e-02
 -6.6545993e-01   1.5874818e-02
 -9.3594892e-03   1.1453467e-02
  1.0647596e+00   4.3926060e-02
  1.9528778e-01   1.2131857e-02
  1.1677683e-02   1.9341138e-03
  5.6277370e-01   1.1170489e-03
 -9.2097715e-02   5.1849787e-03
  1.4886585e-01   1.5336630e-03
 -1.3530222e-01   4.7466969e-03
  5.5336445e-03   8.7469080e-03
 -3.7477467e-02   2.8134251e-02
  2.5722268e-01   1.6303478e-02
  6.1606705e-01   4.1782254e-04
 -4.9336154e-02   1.5019503e-02
  6.1934698e-01   4.8475421e-04
  9.0634823e-02   3.6825826e-03
 -9.3062991e-01   1.8129740e-03
 -8.0570346e-01   3.8552226e-03
 -6.2359738e-01   1.0653995e-02
 -3.0067201e+00   1.1382172e-03
  5.2143586e-01   1.7985264e-04
 -2.6587573e-01   9.4583986e-04
  7.8475028e-02   6.7979326e-03
 -6.2539077e-01   1.1971954e-04
  1.9933687e-01   5.1475484e-03
 -2.5698073e-02   7.2938208e-03
 -1.6247311e+00   1.6869683e-03
 -8.4305786e-02   1.7570566e-02
 -1.4414694e+00   7.4834931e-03
 -7.8602381e-02   7.5414469e-03
  3.1609732e-01   3.1970799e-02
 -7.9167855e-01   1.8781655e-02
  3.9954075e-01   2.0933140e-03
  3.1414863e-02   3.6839742e-02
  1.5244331e-02   2.6445966e-02
  2.9374270e+00   6.3248095e-04
 -2.3313180e-01   2.3801325e-02
  1.9455060e-01   1.9215297e-02
  4.2746872e-01   5.0816280e-03
 -1.0961561e-02   4.1313574e-02
 -1.2235297e-01   2.1063659e-02
  1.5030803e-01   2.5438277e-02
  1.4164680e-01   2.7549783e-02
  4.1549993e-01   2.5417812e-02
  1.1520614e-01   3.7118442e-02
 -9.8749924e-01   2.8275342e-03
 -1.1376827e-01   3.1737247e-03
 -1.8372176e-02   5.0808765e-02
  1.5198564e-02   4.9884688e-02
  3.8277787e-01   1.9704424e-02
 -1.5729101e-01   7.9906313e-03
 -3.9146017e-02   1.0076903e-02
 -3.8451012e-03   9.0686129e-03
  1.9416712e-02   1.8457383e-02
 -1.1622567e-01   2.6132720e-02
  1.4388576e-01   1.2367848e-02
  2.5316995e-01   2.3377394e-02
 -1.2875420e+00   1.8846255e-03
 -1.0673480e-02   3.2882981e-02
  1.1358906e+00   6.7985798e-03
  6.4875126e-02   1.6120376e-02
 -3.1443655e-03   8.5920928e-04
 -4.5879029e-02   3.5634588e-02
  3.1157330e-01   3.5146717e-03
 -7.4788326e-01   7.0014043e-04
  9.3016130e-01   3.6473692e-04
 -1.6317832e-01   3.6811482e-04
 -8.8443682e-02   1.7826951e-05
  9.6723324e-01   3.7483456e-05
  9.6831769e-02   7.2321561e-03
  1.3165578e+00   1.0630956e-03
  1.0084673e+00   1.3213537e-03
  9.2500299e-01   3.9044481e-03
 -8.9787018e-01   2.7682590e-03
 -1.1245333e+00   1.0115581e-03
 -3.6360759e-01   3.2439918e-04
 -1.9751009e-02   1.4162569e-04
 -1.3901328e+00   6.0861954e-04
  1.4141743e+00   7.4833416e-04
 -1.7057045e+00   8.8811954e-05
  1.4573812e+00   2.0273525e-04
 -3.0419888e+00   3.4268545e-05
  1.5441772e-01   3.8604648e-03
 -1.9020408e+00   4.1687824e-03
  8.2958949e-01   1.1737819e-03
  5.6267256e-01   1.3077760e-03
 -2.8951898e-02   8.6874563e-05
  8.1639463e-01   8.9550239e-04
  2.5692090e-01   1.5211524e-03
  6.9136828e-01   1.6950609e-02
 -2.6223585e-01   5.0632278e-03
  2.2280226e+00   3.4580228e-03
  1.3398033e+00   4.0620184e-03
  2.0011975e-01   2.5791910e-02
  1.3819627e+00   3.2917350e-03
 -3.7396699e-02   8.5560642e-03
 -3.6469525e-01   1.5754326e-03
  1.9404989e+00   1.7252143e-02
 -5.1439648e+00   5.2805496e-03
 -1.8066468e+00   1.3192981e-03
  1.9734335e-01   1.4287696e-03
 -1.6130061e-01   1.3728800e-02
 -9.9189281e-01   1.1083864e-02
  2.3246925e-01   1.2502418e-02
 -3.0628171e-02   4.7957823e-03
 -1.4301229e-01   7.3399098e-04
  3.2930094e-01   3.4853865e-03
  5.0181276e-01   6.7553092e-03
 -5.1073752e-02   5.1599210e-03
  1.1165712e+00   4.4004864e-04
  7.4075186e-01   6.3239480e-03
  1.9271151e+00   2.3773159e-03
  9.3363404e-01   2.9969991e-03
 -1.6985857e+00   3.3723365e-04
  2.6641834e+00   3.5239798e-03
 -7.4677145e-01   1.1772625e-02
  1.0145118e+00   7.1876002e-03
  1.4200445e+00   1.5284882e-02
  3.2477949e-03   1.2575276e-02
  4.2690974e-02   2.5047921e-02
  8.8399082e-02   1.7161826e-02
  1.8303504e+00   1.1698597e-03
 -2.1403035e-02   6.1997838e-02
 -1.5060344e-01   5.2316584e-02
  9.4063491e-01   1.3542711e-03
  9.5545769e-02   8.2540289e-03
 -1.3627533e+00   1.3528458e-02
 -1.0494757e+00   6.6028722e-04
  2.2448041e-01   1.2966973e-03
  1.5460536e-01   5.4792287e-03
  2.7104470e-01   2.7200742e-02
 -7.5745755e-01   8.9713391e-03
 -3.5419250e-01   5.2277851e-03
  5.4815388e-01   3.2538050e-03
 -5.7386258e-03   5.1509258e-03
  2.9361159e-01   5.0173271e-03
  2.6347399e-01   2.6777585e-03
  5.5608141e-01   9.1895368e-03
 -1.1796169e-02   2.1627273e-02
 -1.9958065e+00   2.1097525e-03
 -1.6380068e+00   6.5543582e-03
 -3.5620697e+00   1.8003825e-03
  1.5270171e-01   6.2873662e-03
  2.0715175e+00   2.0410446e-03
 -9.6374404e-01   9.4613880e-03
 -3.9156678e-01   2.8513165e-03
  6.7631131e-01   2.1520625e-03
 -2.2592030e-01   3.5421168e-03
  8.2322055e-01   4.9508596e-03
  8.9196080e-01   1.3402820e-03
 -7.1368769e-02   2.9669572e-03
 -6.1600137e-01   1.9093700e-03
  1.0562387e-01   1.7514892e-02
  2.5669744e-02   1.1237901e-02
  4.1686580e-01   7.4409746e-04
  6.3716084e-01   2.8012581e-03
 -1.3374785e+00   9.5821626e-04
 -8.4905624e-01   6.9510112e-05
  1.6948760e-01   1.0601232e-03
  2.4543111e+00   1.0951383e-03
 -2.1375117e-01   4.7174064e-03
  1.7799662e-01   5.1436424e-03
  6.9910765e-01   1.5450470e-03
 -9.5176405e-01   2.2618449e-03
  6.3787138e-01   9.7804400e-04
 -2.6480600e-01   2.2522770e-03
  2.6713002e+00   1.7931281e-03
  1.4235888e+00   1.1075159e-03
 -2.2025166e+00   2.0040229e-03
 -2.2299057e-01   1.4098776e-03
 -1.0053294e+00   3.5300545e-05
  2.1769867e+00   8.1462064e-04
 -3.0943341e+00   3.8966355e-03
  1.1745518e+00   3.8492950e-03
  1.9096418e-01   3.0247425e-04
 -2.9960540e-01   1.0418372e-03
  3.9864781e-01   1.0730237e-03
 -2.5694922e-01   8.4922211e-03
 -2.6977491e+00   3.4532566e-03
 -1.0133518e+00   1.9528909e-02
  7.9740685e-01   2.4719134e-02
  1.7361009e+00   6.0121617e-03
 -1.8276761e-01   3.0887392e-03
 -1.4510150e+00   5.5804234e-03
 -2.3706944e-01   1.2587672e-03
  2.3223052e+00   3.8310613e-03
  1.9806882e+00   1.1263740e-03
 -3.8392361e-02   9.8122377e-04
 -1.6267509e+00   5.9700767e-03
 -6.9430880e-02   6.6084927e-03
 -1.9630989e-01   2.4446007e-03
  9.0338171e-01   1.9168751e-03
  6.6771847e-01   5.8492175e-03
 -5.2237436e-02   3.6910422e-02
 -8.0032021e-01   4.9819811e-03
 -6.6608590e-01   4.2317435e-03
 -8.5892552e-01   5.7271961e-03
 -9.5426351e-02   1.2474046e-02
  1.7445852e+00   1.9290073e-04
 -2.0381842e+00   3.5980616e-03
  1.7526107e+00   6.7838351e-05
 -7.1950233e-01   3.0945200e-03
  2.6780296e-02   4.1513134e-02
  6.4445534e-03   1.0153612e-02
 -3.4169471e-01   1.5433736e-03
  9.7131795e-01   6.0932515e-03
  8.9522856e-01   1.8155443e-03
 -6.6795745e-03   3.6524832e-03
 -8.4350723e-01   5.7873985e-04
  1.4101177e-01   1.4454873e-02
  9.0517223e-01   3.5317384e-03
  1.1109810e-01   3.6986120e-02
 -2.6832569e-01   2.8658591e-02
 -5.7882298e-02   9.3750551e-02
  7.0074432e-02   4.0397472e-03
 -4.8608501e-02   1.4121070e-02
 -1.3789657e-01   1.1564071e-02
 -1.2847015e-01   1.8434235e-03
 -2.5547448e-01   1.5683118e-02
 -2.3768242e-02   4.5051998e-03
 -6.5277621e-02   2.1708112e-02
 -1.6039363e-01   2.5338158e-02
 -1.2041858e-01   2.4814000e-02
  1.6780846e+00   4.9292892e-03
 -1.1571779e+00   1.1470952e-02
  1.2515524e-02   1.7673515e-02
  1.2428726e+00   4.7549168e-03
  1.3348848e-01   1.5158479e-02
 -1.6856337e-01   1.5703717e-02
 -3.8193878e-02   6.4979168e-03
  3.8423070e-01   5.8092410e-03
 -5.2287322e-01   7.7112038e-03
 -5.0777920e-02   4.6455418e-03
  6.2855148e-01   4.6138219e-03
 -3.0075891e-03   1.3478740e-02
  4.4665523e-02   1.0820981e-03
  1.1156580e+00   1.0117066e-02
 -6.3081902e-01   2.7104062e-03
 -5.7241201e-01   8.4945066e-03
  3.7281375e-02   7.5883932e-02
  6.0731046e-02   1.3145260e-02
 -3.6386978e-03   1.2368102e-02
 -1.0272685e+00   1.7561194e-03
 -1.5119202e-01   1.3936595e-02
  8.1280106e-01   1.0108631e-03
 -1.3661280e-02   4.3097618e-03
  2.4006504e-01   5.1707714e-03
 -3.8436258e-01   1.0524625e-02
  2.3088430e-01   3.4365312e-03
  5.1332146e-02   3.5641849e-02
  3.7566327e-02   1.1523397e-02
 -2.6981366e-01   2.0291708e-02
 -1.7284843e-01   2.1645326e-02
 -6.5999173e-02   7.9211183e-03
 -6.1135012e-01   1.0434717e-02
  6.6710871e-01   1.0899772e-03
  1.8700433e-01   6.5900902e-03
  6.1669417e-02   2.2332016e-03
 -1.1354706e-01   1.3364503e-02
  1.7191921e+00   3.6904886e-03
  8.4733479e-02   1.4396696e-03
 -8.0578446e-01   1.9156879e-04
  3.7770022e-02   3.4667091e-03
 -4.4845214e-01   8.0446966e-02
 -4.7336456e-01   4.9703540e-03
  2.7689442e-01   1.0509019e-03
 -1.5618436e-01   3.4475862e-03
 -3.0448288e-02   5.1860437e-03
 -2.8838899e+00   2.6653421e-03
  1.7231157e-01   1.9716484e-02
 -8.9057691e-02   1.2957599e-02
 -4.8146825e-02   3.8433865e-02
 -6.4974827e-01   6.4375415e-02
  5.4959929e-01   1.8028760e-02
  9.8779030e-02   1.3044925e-04
 -4.1163046e-02   4.7824103e-03
 -6.1347377e-01   1.7983452e-04
 -1.0426521e+00   5.2363789e-03
 -1.1886516e+00   1.8026080e-03
  1.1061480e+00   9.2104712e-04
 -2.3769066e+00   7.2520417e-03
 -1.4045441e+00   1.1955687e-02
 -1.7303809e+00   2.7469620e-03
  4.3167916e-01   1.6396588e-02
 -1.7008623e-01   5.1213321e-03
  1.6882510e+00   2.4674688e-03
 -3.2245684e-01   2.8275000e-03
 -3.7069354e+00   3.4442553e-04
 -1.6320987e-01   1.4838903e-03
  6.5816015e-01   2.8127921e-04
  1.2306080e+00   2.0345536e-03
 -1.7986212e+00   8.5761363e-04
 -1.1015816e+00   1.1440297e-02
  2.1141909e-01   2.4909656e-02
 -1.3920401e+00   2.2928154e-03
  2.3822093e-01   2.1850164e-03
 -3.5517621e-01   4.2902622e-03
 -1.3724799e-01   1.3705296e-02
  4.0636745e-01   1.2743720e-02
  4.4950569e-01   3.8914743e-03
 -3.5196558e-02   2.7957462e-02
  7.5723571e-01   7.7784513e-03
 -6.6356790e-01   1.1436802e-03
 -2.1230684e-01   2.5132505e-02
 -2.3236012e-02   1.4176180e-02
 -1.5528770e-01   2.5240490e-02
 -4.7457342e+00   6.6469838e-05
 -4.4704947e-01   1.3235980e-02
 -8.8182014e-01   4.2831941e-04
 -8.6572608e-03   2.8040439e-03
  1.2437911e-01   2.5670087e-02
  2.1720621e-01   1.6694964e-03
  9.7082697e-02   2.3249168e-02
 -2.8502530e-01   1.0794825e-03
 -5.8782030e-02   2.3483502e-02
  1.7643179e-01   4.2746998e-02
  1.9085678e+00   1.0700331e-03
  1.2834996e-01   6.1391103e-03
  1.4711139e-01   2.3328308e-02
 -1.1565530e+00   8.4560137e-04
 -7.5259052e-02   2.6019804e-02
  9.0030992e-01   6.1015203e-04
  2.6202679e+00   4.2646349e-04
 -1.1207253e+00   4.8352573e-03
 -1.7934650e-01   2.0653373e-02
  2.6453143e-02   1.1980343e-02
 -1.6111964e-02   2.2866152e-02
 -2.4935190e-02   3.1405680e-02
 -1.1364653e+00   1.7347582e-02
  2.2720982e-01   2.8497884e-02
  5.4233514e-02   1.8833678e-02
  5.9024580e-02   4.5241490e-03
  1.5494552e-01   1.9932855e-02
 -4.7272827e-02   2.4690794e-02
  1.7049441e+00   4.3994698e-04
 -1.6259769e-02   2.4386711e-02
  2.7243537e-01   1.7112363e-03
 -1.3971426e-01   4.0554176e-03
  1.6474057e-02   6.0507949e-03
 -3.5395723e-02   5.5460170e-02
 -1.6018195e+00   1.4320583e-03
  8.8175377e-03   3.4705155e-02
 -1.8282491e-01   1.8080087e-02
 -6.1340308e-01   2.0924371e-03
 -6.7235276e-02   1.9347783e-02
  7.3030069e-02   8.1154173e-03
 -7.4658439e-02   1.4023508e-02
 -1.5811071e-01   9.8769804e-03
  2.4760002e-03   1.9898086e-03
  1.1836461e+00   9.1763940e-03
  8.7241083e-01   5.8531063e-03
  3.6420276e+00   1.2806604e-03
  4.3689692e-01   1.5578955e-02
  5.1173335e-01   8.4967855e-03
  1.6201341e+00   6.5199570e-03
  1.1653268e-01   1.0979222e-02
 -1.8843068e-02   9.1629392e-03
 -3.1426795e-02   1.0860171e-02
  4.1030340e-02   1.0145464e-02
  2.7841868e-02   3.0677572e-02
  4.9006846e-02   1.4330967e-02
  3.1949046e-01   2.2411333e-02
 -7.3768713e-02   2.1449681e-03
 -8.8462783e-03   1.5909614e-03
  2.1241624e+00   1.9744676e-04
 -3.4093320e-01   3.9819584e-05
  2.7818471e-01   1.0786437e-05
  1.7621067e+00   6.8916632e-03
  7.3411560e-01   7.0869998e-04
 -5.3081833e-02   4.0031874e-04
 -3.0242503e-01   3.6463884e-04
 -8.1390458e-01   1.1244057e-03
 -1.0267454e+00   6.7738420e-04
 -1.1731694e-01   2.2242525e-04
  6.1907643e-01   4.8374900e-04
 -1.5094087e+00   9.2718779e-04
  1.9146714e+00   1.1700199e-03
  9.2743832e-01   1.6196063e-04
  1.3004783e-01   4.3491027e-04
 -3.3834612e+00   1.9454707e-04
 -9.3779838e-01   1.0239664e-02
 -1.3360266e-02   5.0665560e-04
 -1.7752841e-02   6.0490094e-04
  2.3895152e+00   3.7978117e-03
 -7.6052463e-01   8.1580920e-06
  7.5471812e-01   5.2974006e-04
  3.0995640e-01   8.2262704e-05
  1.1421180e+00   2.0785883e-04
 -1.8089038e+00   3.6149652e-04
 -1.0973357e-01   1.9650448e-04
  2.4202941e-01   1.2922403e-03
 -1.3400984e+00   7.6952018e-04
  2.4981427e+00   2.7787569e-03
 -1.1629735e-01   7.2558853e-04
 -8.8803607e-01   6.3938220e-05
  4.6252057e-01   9.9754747e-05
 -1.8122739e+00   4.4722168e-05
  2.5318232e-01   2.0834125e-04
  1.2488713e-01   1.2334315e-04
 -1.5777208e-01   2.6395867e-04
  2.7774146e-01   1.7966500e-04