332
Lattice="13.773639689856397 0.0 0.0 0.0 13.773639689856397 0.0 0.0 0.0 19.139459682220846" Properties=species:S:1:pos:R:3:momenta:R:3:forces:R:3 stress="-0.008596833202835361 -0.0 -0.0 -0.0 -0.008596833202835361 -0.0 -0.0 -0.0 -0.011945915980481146" pbc="T T T"
C        1.08685711      10.31229260       2.85129999      -0.08761596       0.01000271      -0.45272574      -0.54672421       0.17474255      -1.42418460
C        3.61304982       9.33835203       2.79012994       0.06272540       0.05500903      -0.64145097       0.26968390       0.21643106      -2.20452032
C        6.24660878       8.32231690       2.77404136       0.08864339       0.08492481      -0.61163126       0.37384302       0.27455890      -2.12075025
C        9.14419234       7.34477747       2.83809887       0.45476351       0.28759412      -0.49990439       1.52126130       0.94187392      -1.66231877
C       11.73434519       6.36077680       2.96453875      -0.10479623       0.19332529       0.08753427      -0.47671601       0.54222889       0.33322456
C        0.64356405       0.41179153       3.13618230       1.05392201      -0.93754712       0.44749396       4.04062404      -2.91371899       1.65647631
C        8.08129643      12.74292641       2.95061681       0.02604619      -1.09879411      -0.03825476      -0.01495086      -4.11816211       0.18810605
C       10.58551438      11.91726140       2.84670272      -0.35541496       0.41129512      -0.05158410      -1.12903629       1.76437822       0.19912185
C       13.38464442      10.76199454       2.93927572      -0.12940816      -0.70076087      -0.57317646      -0.52646712      -2.51630117      -2.17676625
C        1.96292498       4.65861730       2.75940761       0.14383476       0.19819141      -1.18923184       0.43134430       0.70522247      -4.20500220
C        4.50089022       3.69141975       2.79047853       0.14776284       0.12734042      -0.34166551       0.62078900       0.43435186      -0.96061195
C        0.79606815      12.58528737       3.25975987      -0.75162158       0.63029714      -0.09879939      -2.76457361       2.43740974      -0.29272688
C        3.05004826      12.16787739       2.90589336      -0.11227604       0.36939920       0.25328133      -0.47099170       1.44345788       1.11235881
C        5.82049540      11.02395105       2.80839278      -0.28311751      -0.18884993      -0.48126378      -1.02470129      -0.53033511      -1.60568450
C        8.53426756      10.04085192       2.78415692      -0.01762510      -0.25226357      -0.24156276      -0.11692845      -0.88014342      -0.67485906
C       11.23876695       9.08440625       2.88516055       0.19393193       0.08280739      -0.25607532       0.72692957       0.30851975      -0.77811555
C        2.04603987       2.29719274       2.94200989      -0.08135234       0.31959354       0.03482668      -0.22876555       0.75725527       0.60172954
C        5.24253786       1.07825706       3.01974467       1.09254021       0.64624875      -0.11490158       3.82878162       1.99058940      -0.25120668
C       12.86002339      12.72102071       3.20681170       0.49098952      -1.04374339       0.38266046       1.88340043      -4.25270570       1.32428047
C        1.66774819       7.70608892       3.01212864       1.04176274       0.14536096       0.49147486       3.78971487       0.34855743       1.96329796
C        4.06249192       6.47198377       2.69113758       0.00538538       0.24837503      -1.29658322       0.03740861       0.96384195      -4.79999598
C        7.16252967       2.60095934       2.77909439      -0.07901245       0.10186275      -0.46628066      -0.17420086       0.52097756      -1.39975829
C        9.53730837       1.70673766       2.97563372      -0.31462089       0.00314428      -0.23161061      -0.99715927       0.20640051      -0.57012919
C       11.80810735       1.38335045       2.99340082      -0.20460204      -0.20322414       0.16739094      -0.49715906      -0.73273482       0.71825251
C        6.65004568       5.55316879       2.84517724      -0.33407793       0.36566299      -0.13782212      -1.23488672       1.33108898      -0.20318993
C        9.32931835       4.31274185       2.94131048      -0.45805339      -0.19922121      -0.35022896      -1.61247310      -0.77156294      -1.24714625
C       11.89584294       3.39917826       2.79907624      -0.59259448       0.05382131      -0.56214433      -1.97341259       0.16787846      -1.81569674
C        1.13224503      12.16102406       0.96363485      -0.03452112       0.22923126       0.21563337      -0.11204200       0.79653078       0.85226757
C        3.75593922      11.35396141       1.20726624       0.32072621      -0.08552693      -0.16197032       1.23761439      -0.14066972      -0.64514681
C        6.67930104       9.86722507       0.92805279      -0.41828088      -0.03318726       0.16804292      -1.49709823      -0.11860175       0.28945996
C        9.81488553       8.82648866       0.96158380       0.12800220       0.51139028       0.13102893       0.45559686       1.81203154       0.46118674
C       11.80431714       7.68627512       1.17540374       0.62987764      -0.22225784      -0.59448568       2.62570791      -0.76476286      -2.42408739
C        0.67880437       1.42631950       0.95223331       0.14771517      -0.19227438       0.52530937       0.42324457      -0.66065788       1.81756205
C        3.27067375       1.53685345       1.32893211       0.41469797      -0.22515085      -0.07168250       1.45438351      -0.79326638      -0.20222238
C       12.36027758      13.06710723       1.06549904      -0.25610163       0.20944284      -0.04483328      -1.10330838       0.98740347      -0.04328550
C        2.24815455       5.45066679       1.36469407      -0.13312333       0.06641286       0.23597373      -0.62759944       0.32015462       0.73421719
C        5.16410580       5.32321191       0.93857104       0.34482568       0.03795868       0.07216739       1.29585799      -0.08967843       0.07574315
C        5.13346917      13.72093922       2.05023316      -0.02271237       0.08428330       0.73508040       0.00516764       0.49193750       2.71811585
C        5.78951677      12.29576295       1.41684632       0.63481436       0.15258734      -0.05833996       2.21609117       0.49087800      -0.09164742
C        9.09137798      11.54054933       0.85147159       0.21221958      -0.38539945      -0.01906432       0.71692282      -1.24683849      -0.12953116
C       11.70243195      10.80271964       0.94914188      -0.43146622      -0.02610880       0.26208952      -1.43549401      -0.02197305       1.01228446
C       13.41823952       4.87191356       1.86340395      -0.09747543       0.12543081       0.19001052      -0.17209711       0.44352013       0.60577564
C        2.60743006       3.18921475       1.02407706       0.40278789      -0.19963152       0.33875005       1.68210702      -0.78794652       1.05331747
C        5.62207439       2.39940557       0.83764346       0.44172556       0.26957081       0.00010871       1.62309853       0.97318396      -0.25881717
C        8.24617959       1.20099012       0.93787429      -0.46680228      -0.33735725       0.48817244      -1.73781004      -1.25535328       1.46257098
C       10.37895589       0.95936009       0.85670442       0.13754794      -0.10649433       0.31249693       0.14056939      -0.36977886       1.18738642
C        2.02377228       8.88495333       0.91971027      -0.24558178      -0.53091191      -0.07741409      -0.88967651      -1.92703140      -0.34353741
C        4.49243126       8.00066923       0.78364633      -0.50964845      -0.33862471       0.08835583      -1.58669786      -0.82180920       0.26418147
C        7.86348242       4.79179979       1.24846992      -0.22564787      -0.92491039      -0.39843183      -0.96177298      -3.44852578      -1.52531824
C        9.91119023       3.29230514       1.21967731       0.17419150      -0.03179472      -0.03669528       0.55587933      -0.29382051      -0.12175069
C       12.97947840       1.49474701       1.00744811      -0.12183520       0.34172363      -0.63809069      -0.31349373       1.20693339      -2.10586604
C        8.01367852       7.11715143       1.22275173       0.14959543      -0.31653142      -0.15985989       0.73991500      -1.43307550      -0.47610936
C       10.15236090       4.98767159       1.96000913      -0.66125660       0.66288474      -0.04391557      -2.42572419       2.29947290      -0.06662135
C       12.18458797       4.82464084       0.94469060      -0.08852688      -0.01085572       0.25319439      -0.29032672      -0.12047923       0.82668820
C        1.63892225      11.77145485       2.33036398      -0.17552814       0.27908531       0.33078567      -0.62379400       1.04083561       1.09906313
C        4.18005128      10.73111581       2.43405255       0.12757032      -0.39859996      -0.27865478       0.63944815      -1.34147348      -0.99964814
C        6.86197678       9.82917887       2.33793168      -0.07201243      -0.03612959       0.33472248      -0.28335618      -0.08864961       1.21807043
C        9.58427106       8.79744887       2.36146276      -0.16788559       0.27210908       0.18963320      -0.67559334       1.15927303       0.73064334
C       12.12193463       7.72470629       2.44639004      -0.54345205       0.11052188       0.02804217      -1.90019393       0.65959258       0.37744961
C        0.76864141       1.69001060       2.31879214      -0.37484631      -0.33587468       0.56351821      -1.48643111      -1.30485468       2.06265641
C        2.81012170       1.06270335       2.49055388       0.22129755       0.32586765       0.28082924       0.79410030       1.28757571       0.96862968
C       11.72669097      12.79994872       2.31002326       0.34614185       0.32674941       0.28936515       1.35607758       1.00393274       1.14195448
C        2.47887510       6.30985669       2.47570660       0.32869876       0.23107269       0.15060983       1.22874511       0.99440623       0.72870396
C        5.06035420       5.20067787       2.35767009       0.07277392      -0.10596987       0.27739460       0.29054355      -0.34002510       0.99532074
C        4.23954335      12.91480552       2.74412088       0.03343510      -0.07953026       0.38326409       0.16279470      -0.22189886       1.43959849
C        6.62914728      12.61893215       2.46862635       0.47762219      -0.33479234       0.01704877       1.66186063      -1.17699218       0.29167579
C        9.08862896      11.63572046       2.30915293      -0.17715203      -0.11585379      -0.01081743      -0.61150578      -0.50229247       0.04586114
C       11.88149537      10.54923967       2.36024064       0.24765065      -0.54372737       0.15089495       0.99892693      -2.15197857       0.57873552
C        0.52475091       4.27739519       2.72619578       0.20678276       0.17433829      -0.15709113       0.97852501       0.49118624      -0.35918848
C        2.86399888       3.48479169       2.39672296       0.21528884       0.12654506       0.26577219       0.90260514       0.38477462       1.10886250
C        5.61250648       2.41276739       2.33475687       0.30772488       0.48203454      -0.10247621       1.10640003       1.68569505      -0.26888580
C        8.24714935       1.43862785       2.35557549      -0.19665185       0.87708439      -0.05777885      -0.95673829       3.13833205      -0.02289262
C       10.60621037       0.93801093       2.29072257       0.18432088       0.34378219       0.34832350       0.33167052       1.11198658       1.19724892
C        2.01367557       9.04503799       2.33269556       0.42463741      -0.07275742      -0.02296556       1.52955203      -0.13594197      -0.07786244
C        4.68763151       8.07003765       2.36709523       0.19997865       0.13942385       0.02027380       0.59419026       0.55427640       0.04956385
C        7.81204862       4.16454166       2.45437157      -0.06449543      -0.20518858       0.39308558      -0.37844886      -0.84917366       1.39426343
C       10.43082972       3.06657840       2.48911250      -0.53146214      -0.08512438       0.25229726      -2.09900410      -0.21588887       0.97625408
C       12.87278300       2.13429818       2.36053767      -0.48357813      -0.03069687      -0.40032632      -1.57414502      -0.09247014      -1.23098911
C        7.30543646       6.99372479       2.49166959      -0.10896674       0.08273816      -0.05739322      -0.52799527       0.40079652      -0.33247856
C       10.09702649       6.25791455       2.60538064       0.62896713       0.47221833      -0.37157905       2.24702306       2.01773568      -1.12909688
C       12.08777542       4.94289645       2.49682204      -0.22567495      -0.11684781      -0.79443395      -0.67882267      -0.38144576      -2.54862046
C        3.02530201      10.70075766       0.23385344       0.05108981      -0.03941767      -0.20558260       0.25275659      -0.31404878      -0.93256976
C        6.73566338       8.12909070       0.73043016      -0.08112598       0.98441793      -0.61122274      -0.44465421       3.69526391      -2.34368432
C        8.03170639       8.01611935       0.02531593       0.10320959      -0.31345746       0.04001151       0.34076144      -0.80645907       0.06827250
C       10.71922684       7.83779468       0.33186574      -0.55686124       0.31757895       0.73858985      -2.05471306       1.44634625       2.48887953
C       13.18731145       8.23305216      19.09211031       0.15751815      -0.50059297       0.88698684       0.39131571      -1.95909597       3.34292836
C       13.59303455      12.54473868       0.49075505      -0.07695679       0.48792892       0.28795473      -0.10286625       1.58528873       0.89427462
C        9.06023777       0.07595102       0.12276992       0.23040152       0.95112399       0.59301756       0.71329552       3.36915917       2.22656759
C       12.40129819      11.91309652       0.03796591       0.15641761      -0.25785494       0.34616078       0.25021021      -0.91712017       1.21360590
C        1.35831498       5.87136429       0.38733436      -0.93149779       0.54053435       0.95752227      -3.22808165       1.78230324       3.31538127
C        3.36090235       5.36482043       0.26352600       0.10348597       0.43480611       0.41091305       0.17747373       1.60614461       1.39633259
C        5.98847890       3.93340550       0.26255436      -0.01399773       0.70717314       0.05679803      -0.12570487       2.63669834       0.20277830
C        1.94470484      12.39183592      19.00914928      -0.84233132       0.86855819      -0.20359426      -3.04240037       3.21767859      -0.79285526
C        5.01552382      12.18899008       0.24884741      -0.06733640      -0.17303518       0.60459611      -0.57732616      -0.68238060       2.11599764
C        7.54685972      11.28364750       0.21550071      -0.46380234      -0.52663511       0.15171859      -1.81012746      -1.91709154       0.47542519
C       10.19874177      10.48838594       0.58688588       0.32493979       0.16443195       0.07025961       1.07067775       0.48201086       0.22056655
C       13.50411516       9.62147466       0.31330863       0.17754347      -0.50789700      -0.24499646       0.57298202      -1.69471501      -0.90840685
C        1.51055350       2.84734119       0.35356121       0.02104673      -0.14854862       1.03703610      -0.43469503      -0.52876762       3.33057602
C        4.20965215       1.99385107       0.43875570       0.77555708      -0.55750074      -0.25251766       2.53179389      -1.92053218      -0.93007309
C        7.00330760       1.47723105       0.22636230       0.05311422      -0.03399437      -0.25340769       0.05681792       0.03175042      -0.90552884
C        0.78315637       8.32846550       0.10291038       0.49452041       0.47873913      -0.41474025       1.49253154       1.81287157      -1.47724592
C        3.47186049       9.01495778       0.38188940      -0.64909710      -0.63400006      -0.18209240      -2.16280064      -1.86832030      -0.81768116
C        4.03222160       6.63087004       0.83398267       0.61184019       0.03755244       0.22743170       2.00601271      -0.29955145       1.12904965
C        9.48014520       2.42992979       0.24896840       0.12231469      -0.39584795       0.65801991       0.54131855      -1.52216056       2.22997100
C       11.64592241       0.94939163       0.20149216      -0.25309157      -0.76868817      -0.01061633      -0.40996769      -2.94209457      -0.04358813
C        8.22700824       5.66103732       0.35622959      -0.01442341       0.48440904       0.73847856      -0.21705509       1.97291034       2.75525695
C       10.98144929       4.94211125       0.16708389      -0.10840182       0.41908386       0.47443416      -0.32435678       1.31622264       1.75427797
C       13.11235854       2.33056583      19.00873471       0.10764754      -0.31116410      -0.91195552       0.12288717      -0.95106095      -3.40697447
C        1.03613173      10.40230418       7.12806048       0.04402500       0.27587690       0.13810066       0.11381203       1.19429674       0.79703661
C        3.64976042       9.32569059       6.92168477       0.08835718      -0.03367637      -0.34940230       0.26501516      -0.06211771      -1.12308717
C        6.28559299       8.24961766       6.92276812       0.00027659       0.01493531      -0.29265556       0.04157551       0.08522366      -0.88854893
C        8.97769369       7.23962383       6.93762796      -0.03428301       0.00043661      -0.22714305      -0.16998927       0.00732543      -0.60952681
C       11.67036053       6.28431729       6.93179847      -0.13738868       0.11332251      -0.22837907      -0.58688397       0.33807923      -0.56974385
C        0.63664425       0.49546191       7.36546772       0.29060019      -0.70033049      -0.04908456       0.94256471      -1.70648281      -0.24960436
C        7.88664335      12.99153459       7.00132420      -0.50380635      -0.17739235      -0.10098720      -1.73079258      -0.68062023      -0.23885792
C       10.70191600      11.80805289       7.02901933      -0.07394686      -0.12171191      -0.03945357      -0.14008591      -0.33763647       0.09172477
C       13.21008824      10.93781400       7.08302145      -0.29929836       0.41260900      -0.06067859      -0.72337329       1.41773999      -0.16056314
C        1.73840203       4.68858508       6.96767487      -0.08529290       0.36347296      -0.09207024      -0.25554251       1.25947531      -0.21232763
C        4.42658530       3.66137384       7.04567195       0.00170923       0.19878864       0.19112588       0.00738684       0.58607084       0.89108422
C        0.70815757      12.86657275       7.17158234      -0.59185493       1.17042879      -0.39459873      -1.75269214       3.22619422      -1.29781561
C        3.31111886      12.06115585       6.94230505       0.41487903      -0.23500558      -0.21846683       1.29569751      -0.54946531      -0.51782845
C        5.83483707      11.11001654       6.92542591       0.23333893      -0.12723826      -0.46676746       0.85630052      -0.33726239      -1.53271028
C        8.49146237      10.05691427       7.04827705      -0.00693948      -0.17663541       0.05914615       0.01630315      -0.52899619       0.39605946
C       11.29817891       9.03259131       7.02688293      -0.02576989      -0.27839231      -0.05044358      -0.17525027      -0.90282973       0.02183610
C        2.16866681       2.05999877       7.04088821       0.07462809       0.46191842      -0.57522643       0.15145559       1.74572740      -1.68424520
C        4.92565533       0.75555600       7.12431099      -0.35996298      -0.09317309      -0.10752044      -1.32002719      -0.26302762      -0.25084537
C       13.05323545      12.43914939       7.22284315       0.79279736      -1.47528067      -0.38062962       2.22880961      -5.06982651      -1.44326291
C        1.53316611       7.55764855       7.05458720       0.44480116       0.02354203      -0.06011065       1.49446105       0.12871513      -0.09494515
C        4.02598616       6.49768446       6.89052396       0.08401258       0.03114677      -0.28170907       0.33123367       0.05772934      -0.88843921
C        7.18443241       2.61582409       6.96677606      -0.03925991      -0.04190163      -0.27464128      -0.14421155      -0.18699984      -0.80422872
C        9.61841643       1.70670647       7.02972877      -0.00469571       0.18801764      -0.49324505       0.00684623       0.81538716      -1.54016203
C       11.87463013       1.25535779       6.98446091       0.12968776      -0.37573138      -0.27757779       0.63827443      -1.40580318      -0.73262479
C        6.71351138       5.46858106       6.94727089      -0.06099441       0.00866198      -0.26666209      -0.16354187      -0.06863123      -0.76581734
C        9.40781030       4.43229083       6.90892628      -0.08881338       0.13691265      -0.24307690      -0.46448777       0.42837037      -0.58593098
C       11.94411768       3.42963263       7.03750195      -0.38402879       0.39280602      -0.13459578      -1.29456585       1.31590705      -0.31234644
C        1.69307270      11.89459364       4.77039292       0.29253011      -0.12210412       0.44549560       0.84990209      -0.43123768       1.90598499
C        4.24745359      10.76403018       4.85351789       0.15577903      -0.55449421       0.35835801       0.51101715      -1.92549881       1.23534735
C        6.87418988       9.80193721       4.89189336      -0.03830663      -0.21803039       0.43262411      -0.10142473      -0.77559135       1.52381053
C        9.56275166       8.85149648       4.92238437      -0.08608583      -0.10752037       0.53874631      -0.31793779      -0.30022982       1.91050767
C       12.29655263       7.79102959       4.89710274      -0.13706525       0.01856624       0.52005358      -0.51657277       0.01384161       1.78217983
C        0.60471629       1.69373807       5.04572458       0.03142265       0.08271868       0.37471266       0.17968978       0.20466360       1.43510217
C        2.89122093       1.11103687       4.90480777       0.43331364      -0.57215365       0.26462021       1.53841800      -1.99923764       0.83829104
C       11.87374078      12.86373768       5.04389369      -0.00350785       0.05583454       0.71610873      -0.09701555       0.41210929       2.83521676
C        2.35751455       6.26557833       4.88981201      -0.11021748       0.05545244       0.40592769      -0.47711372       0.12164114       1.40381063
C        5.10405059       5.19903665       4.86469775      -0.01749524      -0.01452470       0.56112733      -0.06652337      -0.17867759       2.01748902
C        4.03124153      13.12896073       4.99175874      -0.59384826      -0.20722184       0.12707108      -1.65759834      -0.41256765       0.69859851
C        6.42097680      12.58388819       4.85769701      -0.02460855      -0.43642420       0.40598304      -0.08091736      -1.40745422       1.45668833
C        9.11368065      11.68740750       4.91942140      -0.08268791      -0.09278411       0.53871167      -0.24004996      -0.24677462       1.90222722
C       11.84425969      10.50889649       4.85585981      -0.06077424      -0.37848880       0.43187819      -0.15595751      -1.20437505       1.60749383
C        0.17220260       4.63806789       4.92157250      -0.34179704      -0.30531203      -0.24260253      -1.11565253      -0.90330243      -0.45314224
C        2.87850372       3.43277237       4.91282177       0.19631485       0.20267834       0.33203057       0.76984394       0.56058046       1.16596660
C        5.53696058       2.33455715       4.92331218       0.00179468       0.17178737       0.59600005      -0.08334553       0.59493521       2.05924838
C        8.11877580       1.41804892       4.91726713      -0.07719227       0.53117495       0.71279257      -0.25397231       1.89166531       2.55329670
C       10.31059533       0.77502709       4.77762902       0.02352215      -0.92220494       0.53850236       0.26332655      -3.33605902       2.09607477
C        1.94098589       9.06326335       4.93126217      -0.01639728      -0.04726007       0.41513086      -0.15602637      -0.07690858       1.40831027
C        4.68619806       8.02755311       4.85228934       0.18337897       0.00380263       0.33612648       0.73311955       0.00978245       1.05360442
C        7.77289995       4.17618728       4.90185034      -0.04164270       0.05146594       0.39734060      -0.15287859       0.12064354       1.46612374
C       10.44531096       3.20855046       4.91561625      -0.19002553       0.26532502       0.45834700      -0.79964115       0.80960180       1.67718981
C       12.97137007       2.22846001       4.86056091      -0.13000350       0.21369130       0.49083927      -0.41417392       0.57347750       1.68530508
C        7.35066924       6.97073231       4.87040698      -0.01686691      -0.05105625       0.47802019      -0.06782365      -0.25535311       1.71029302
C       10.01532781       5.96168416       4.90194279      -0.19501401      -0.00336242       0.55643229      -0.77198214      -0.03066812       1.93682034
C       12.47898418       5.16441187       4.94555231      -0.24410355       0.12058270       0.49134132      -0.91114303       0.17326677       1.65484139
C        1.68308996      11.80034405       6.42814588      -0.00206745       0.27637148       0.69183360       0.06869480       1.10865670       2.39725048
C        4.22768331      10.82434053       6.55764715       0.23945542      -0.24609437      -0.06281728       0.84280844      -0.67275687      -0.22830208
C        6.87358167       9.82077482       6.54344784      -0.04547969      -0.04928705       0.11366368      -0.05491086      -0.11436647       0.45060069
C        9.51911119       8.80669989       6.56087522      -0.03470599      -0.08669782       0.09781160      -0.11385410      -0.24656802       0.47388231
C       12.06399866       7.72129099       6.42944316      -0.54961905      -0.17387271      -0.08183614      -1.94687181      -0.49832716      -0.09540406
C        0.69896773       1.79176045       6.54257250      -0.24035619      -0.18840798       0.79452606      -0.62797217      -0.79655143       2.83690876
C        2.90762787       1.15049644       6.29115606       0.19385136       0.01824217       0.30668044       0.75714934      -0.11887621       1.37960949
C       11.68403443      12.75835476       6.41565838       0.27142557       0.21788962       0.79828576       1.19889417       0.65461341       2.96632313
C        2.43554486       6.29412320       6.50432835       0.19715365       0.18995599       0.14121548       0.61236087       0.58185753       0.55342066
C        5.08522779       5.20837457       6.57297476       0.02547893       0.08142635       0.02663079       0.15638109       0.09753385       0.16005788
C        4.26597065      13.23906110       6.45275558      -0.26298745       0.62391800       0.15333766      -1.07988015       2.12113910       0.79857390
C        6.49624234      12.52018365       6.40541040       0.07587186      -0.67885915      -0.13849292       0.31576337      -2.28887474      -0.23495487
C        9.14388523      11.65141929       6.53206658       0.01837541      -0.15339090       0.09666148       0.08602704      -0.47258591       0.48879683
C       11.81083129      10.47127993       6.56712689      -0.02742834      -0.42554064       0.11339279      -0.13017061      -1.23242998       0.39892256
C        0.38153193       4.57999676       6.37306452      -0.03031300       0.46640095      -0.05943163      -0.15622893       1.51106238      -0.10644399
C        2.83602830       3.46474788       6.56455519      -0.01171710       0.26037294       0.17152283      -0.06830655       0.78331221       0.66734284
C        5.55606443       2.31347445       6.52923236       0.05947129       0.04094068       0.10848286       0.18394036       0.08620758       0.56451802
C        8.22194230       1.39434983       6.53414909      -0.22414794       0.48380712      -0.23869208      -0.82163799       1.75141154      -0.81647232
C       10.63837424       0.94949205       6.36762116      -0.01382348       0.08349187       0.07702820      -0.38670399       0.19160366       0.15760768
C        1.96132044       9.02996331       6.52967972       0.16114911      -0.00300791       0.26753405       0.52904667       0.15547323       0.98999873
C        4.64134597       8.02164254       6.55139798       0.03661681      -0.06158417      -0.03974533       0.18144915      -0.17255825      -0.20798527
C        7.77967949       4.15354949       6.52065332       0.01556366       0.06449996       0.04593814       0.03932280       0.16220307       0.31363459
C       10.37677312       3.22838017       6.54819980      -0.34621560       0.30262838       0.21736887      -1.15909365       0.93490163       0.92125748
C       12.86059586       2.27925859       6.47490968      -0.30019438       0.27229382      -0.00874973      -0.97747039       0.74153363       0.20318610
C        7.32803463       6.97584104       6.55345246      -0.09814851       0.01845317      -0.01714348      -0.30909629       0.01135103      -0.02606787
C        9.99470627       5.97144073       6.53712511      -0.15656940       0.03696614       0.09896090      -0.64240683      -0.00680017       0.47451585
C       12.57320144       4.95480561       6.58567035      -0.08201352       0.05432347       0.15044797      -0.28669116       0.18665543       0.63775911
C        2.49324916      10.50170962       4.37910579       0.00850715      -0.38540273       0.69211357       0.20390677      -1.11664348       2.40413770